# vtk DataFile Version 2.0
3D Data
ASCII
DATASET UNSTRUCTURED_GRID
POINTS 8110 double 
840000 2.15393e+06 -10000
850000 2.15393e+06 -10000
860000 2.15393e+06 -10000
870000 2.15393e+06 -10000
880000 2.15393e+06 -10000
890000 2.15393e+06 -10000
900000 2.15393e+06 -10000
910000 2.15393e+06 -10000
920000 2.15393e+06 -10000
930000 2.15393e+06 -10000
940000 2.15393e+06 -10000
950000 2.15393e+06 -10000
960000 2.15393e+06 -10000
970000 2.15393e+06 -10000
980000 2.15393e+06 -10000
990000 2.15393e+06 -10000
1e+06 2.15393e+06 -10000
1.01e+06 2.15393e+06 -10000
1.02e+06 2.15393e+06 -10000
1.03e+06 2.15393e+06 -10000
1.04e+06 2.15393e+06 -10000
1.05e+06 2.15393e+06 -10000
1.06e+06 2.15393e+06 -10000
1.07e+06 2.15393e+06 -10000
1.08e+06 2.15393e+06 -10000
1.09e+06 2.15393e+06 -10000
1.1e+06 2.15393e+06 -10000
1.11e+06 2.15393e+06 -10000
1.12e+06 2.15393e+06 -10000
1.13e+06 2.15393e+06 -10000
1.14e+06 2.15393e+06 -10000
1.15e+06 2.15393e+06 -10000
1.16e+06 2.15393e+06 -10000
1.17e+06 2.15393e+06 -10000
1.18e+06 2.15393e+06 -10000
1.19e+06 2.15393e+06 -10000
1.2e+06 2.15393e+06 -10000
1.21e+06 2.15393e+06 -10000
1.22e+06 2.15393e+06 -10000
1.23e+06 2.15393e+06 -10000
1.24e+06 2.15393e+06 -10000
1.25e+06 2.15393e+06 -10000
1.26e+06 2.15393e+06 -10000
1.27e+06 2.15393e+06 -10000
1.28e+06 2.15393e+06 -10000
1.29e+06 2.15393e+06 -10000
1.3e+06 2.15393e+06 -10000
1.31e+06 2.15393e+06 -10000
1.32e+06 2.15393e+06 -10000
1.33e+06 2.15393e+06 -10000
1.37e+06 2.15393e+06 -10000
1.38e+06 2.15393e+06 -10000
1.39e+06 2.15393e+06 -10000
1.4e+06 2.15393e+06 -10000
1.41e+06 2.15393e+06 -10000
1.42e+06 2.15393e+06 -10000
1.43e+06 2.15393e+06 -10000
1.44e+06 2.15393e+06 -10000
1.45e+06 2.15393e+06 -10000
1.46e+06 2.15393e+06 -10000
1.47e+06 2.15393e+06 -10000
1.48e+06 2.15393e+06 -10000
1.49e+06 2.15393e+06 -10000
1.5e+06 2.15393e+06 -10000
1.51e+06 2.15393e+06 -10000
1.52e+06 2.15393e+06 -10000
1.53e+06 2.15393e+06 -10000
1.54e+06 2.15393e+06 -10000
1.55e+06 2.15393e+06 -10000
1.56e+06 2.15393e+06 -10000
1.57e+06 2.15393e+06 -10000
1.58e+06 2.15393e+06 -10000
1.59e+06 2.15393e+06 -10000
1.6e+06 2.15393e+06 -10000
1.61e+06 2.15393e+06 -10000
1.62e+06 2.15393e+06 -10000
1.63e+06 2.15393e+06 -10000
1.64e+06 2.15393e+06 -10000
1.65e+06 2.15393e+06 -10000
1.66e+06 2.15393e+06 -10000
1.67e+06 2.15393e+06 -10000
1.68e+06 2.15393e+06 -10000
1.69e+06 2.15393e+06 -10000
1.7e+06 2.15393e+06 -10000
1.71e+06 2.15393e+06 -10000
1.72e+06 2.15393e+06 -10000
1.73e+06 2.15393e+06 -10000
1.74e+06 2.15393e+06 -10000
1.75e+06 2.15393e+06 -10000
1.96e+06 2.15393e+06 -10000
1.97e+06 2.15393e+06 -10000
1.98e+06 2.15393e+06 -10000
1.99e+06 2.15393e+06 -10000
840000 2.16393e+06 -10000
850000 2.16393e+06 -10000
860000 2.16393e+06 -10000
870000 2.16393e+06 -10000
880000 2.16393e+06 -10000
890000 2.16393e+06 -10000
900000 2.16393e+06 -10000
910000 2.16393e+06 -10000
920000 2.16393e+06 -10000
930000 2.16393e+06 -10000
940000 2.16393e+06 -10000
950000 2.16393e+06 -10000
960000 2.16393e+06 -10000
970000 2.16393e+06 -10000
980000 2.16393e+06 -10000
990000 2.16393e+06 -10000
1e+06 2.16393e+06 -10000
1.01e+06 2.16393e+06 -10000
1.02e+06 2.16393e+06 -10000
1.03e+06 2.16393e+06 -10000
1.04e+06 2.16393e+06 -10000
1.05e+06 2.16393e+06 -10000
1.06e+06 2.16393e+06 -10000
1.07e+06 2.16393e+06 -10000
1.08e+06 2.16393e+06 -10000
1.09e+06 2.16393e+06 -10000
1.1e+06 2.16393e+06 -10000
1.11e+06 2.16393e+06 -10000
1.12e+06 2.16393e+06 -10000
1.13e+06 2.16393e+06 -10000
1.14e+06 2.16393e+06 -10000
1.15e+06 2.16393e+06 -10000
1.16e+06 2.16393e+06 -10000
1.17e+06 2.16393e+06 -10000
1.18e+06 2.16393e+06 -10000
1.19e+06 2.16393e+06 -10000
1.2e+06 2.16393e+06 -10000
1.21e+06 2.16393e+06 -10000
1.22e+06 2.16393e+06 -10000
1.23e+06 2.16393e+06 -10000
1.24e+06 2.16393e+06 -10000
1.25e+06 2.16393e+06 -10000
1.26e+06 2.16393e+06 -10000
1.27e+06 2.16393e+06 -10000
1.28e+06 2.16393e+06 -10000
1.29e+06 2.16393e+06 -10000
1.3e+06 2.16393e+06 -10000
1.31e+06 2.16393e+06 -10000
1.32e+06 2.16393e+06 -10000
1.33e+06 2.16393e+06 -10000
1.34e+06 2.16393e+06 -10000
1.35e+06 2.16393e+06 -10000
1.36e+06 2.16393e+06 -10000
1.37e+06 2.16393e+06 -10000
1.38e+06 2.16393e+06 -10000
1.39e+06 2.16393e+06 -10000
1.4e+06 2.16393e+06 -10000
1.41e+06 2.16393e+06 -10000
1.42e+06 2.16393e+06 -10000
1.43e+06 2.16393e+06 -10000
1.44e+06 2.16393e+06 -10000
1.45e+06 2.16393e+06 -10000
1.46e+06 2.16393e+06 -10000
1.47e+06 2.16393e+06 -10000
1.48e+06 2.16393e+06 -10000
1.49e+06 2.16393e+06 -10000
1.5e+06 2.16393e+06 -10000
1.51e+06 2.16393e+06 -10000
1.52e+06 2.16393e+06 -10000
1.53e+06 2.16393e+06 -10000
1.54e+06 2.16393e+06 -10000
1.55e+06 2.16393e+06 -10000
1.56e+06 2.16393e+06 -10000
1.57e+06 2.16393e+06 -10000
1.58e+06 2.16393e+06 -10000
1.59e+06 2.16393e+06 -10000
1.6e+06 2.16393e+06 -10000
1.61e+06 2.16393e+06 -10000
1.62e+06 2.16393e+06 -10000
1.63e+06 2.16393e+06 -10000
1.64e+06 2.16393e+06 -10000
1.65e+06 2.16393e+06 -10000
1.66e+06 2.16393e+06 -10000
1.67e+06 2.16393e+06 -10000
1.68e+06 2.16393e+06 -10000
1.69e+06 2.16393e+06 -10000
1.7e+06 2.16393e+06 -10000
1.71e+06 2.16393e+06 -10000
1.72e+06 2.16393e+06 -10000
1.73e+06 2.16393e+06 -10000
1.74e+06 2.16393e+06 -10000
1.75e+06 2.16393e+06 -10000
1.76e+06 2.16393e+06 -10000
1.95e+06 2.16393e+06 -10000
1.96e+06 2.16393e+06 -10000
1.97e+06 2.16393e+06 -10000
1.98e+06 2.16393e+06 -10000
1.99e+06 2.16393e+06 -10000
2e+06 2.16393e+06 -10000
840000 2.17393e+06 -10000
850000 2.17393e+06 -10000
860000 2.17393e+06 -10000
870000 2.17393e+06 -10000
880000 2.17393e+06 -10000
890000 2.17393e+06 -10000
900000 2.17393e+06 -10000
910000 2.17393e+06 -10000
920000 2.17393e+06 -10000
930000 2.17393e+06 -10000
940000 2.17393e+06 -10000
950000 2.17393e+06 -10000
960000 2.17393e+06 -10000
970000 2.17393e+06 -10000
980000 2.17393e+06 -10000
990000 2.17393e+06 -10000
1e+06 2.17393e+06 -10000
1.01e+06 2.17393e+06 -10000
1.02e+06 2.17393e+06 -10000
1.03e+06 2.17393e+06 -10000
1.04e+06 2.17393e+06 -10000
1.05e+06 2.17393e+06 -10000
1.06e+06 2.17393e+06 -10000
1.07e+06 2.17393e+06 -10000
1.08e+06 2.17393e+06 -10000
1.09e+06 2.17393e+06 -10000
1.1e+06 2.17393e+06 -10000
1.11e+06 2.17393e+06 -10000
1.12e+06 2.17393e+06 -10000
1.13e+06 2.17393e+06 -10000
1.14e+06 2.17393e+06 -10000
1.15e+06 2.17393e+06 -10000
1.16e+06 2.17393e+06 -10000
1.17e+06 2.17393e+06 -10000
1.18e+06 2.17393e+06 -10000
1.19e+06 2.17393e+06 -10000
1.2e+06 2.17393e+06 -10000
1.21e+06 2.17393e+06 -10000
1.22e+06 2.17393e+06 -10000
1.23e+06 2.17393e+06 -10000
1.24e+06 2.17393e+06 -10000
1.25e+06 2.17393e+06 -10000
1.26e+06 2.17393e+06 -10000
1.27e+06 2.17393e+06 -10000
1.28e+06 2.17393e+06 -10000
1.29e+06 2.17393e+06 -10000
1.3e+06 2.17393e+06 -10000
1.31e+06 2.17393e+06 -10000
1.32e+06 2.17393e+06 -10000
1.33e+06 2.17393e+06 -10000
1.34e+06 2.17393e+06 -10000
1.35e+06 2.17393e+06 -10000
1.36e+06 2.17393e+06 -10000
1.37e+06 2.17393e+06 -10000
1.38e+06 2.17393e+06 -10000
1.39e+06 2.17393e+06 -10000
1.4e+06 2.17393e+06 -10000
1.41e+06 2.17393e+06 -10000
1.42e+06 2.17393e+06 -10000
1.43e+06 2.17393e+06 -10000
1.44e+06 2.17393e+06 -10000
1.45e+06 2.17393e+06 -10000
1.46e+06 2.17393e+06 -10000
1.47e+06 2.17393e+06 -10000
1.48e+06 2.17393e+06 -10000
1.49e+06 2.17393e+06 -10000
1.5e+06 2.17393e+06 -10000
1.51e+06 2.17393e+06 -10000
1.52e+06 2.17393e+06 -10000
1.53e+06 2.17393e+06 -10000
1.54e+06 2.17393e+06 -10000
1.55e+06 2.17393e+06 -10000
1.56e+06 2.17393e+06 -10000
1.57e+06 2.17393e+06 -10000
1.58e+06 2.17393e+06 -10000
1.59e+06 2.17393e+06 -10000
1.6e+06 2.17393e+06 -10000
1.61e+06 2.17393e+06 -10000
1.62e+06 2.17393e+06 -10000
1.63e+06 2.17393e+06 -10000
1.64e+06 2.17393e+06 -10000
1.65e+06 2.17393e+06 -10000
1.66e+06 2.17393e+06 -10000
1.67e+06 2.17393e+06 -10000
1.68e+06 2.17393e+06 -10000
1.69e+06 2.17393e+06 -10000
1.7e+06 2.17393e+06 -10000
1.71e+06 2.17393e+06 -10000
1.72e+06 2.17393e+06 -10000
1.73e+06 2.17393e+06 -10000
1.74e+06 2.17393e+06 -10000
1.75e+06 2.17393e+06 -10000
1.76e+06 2.17393e+06 -10000
1.94e+06 2.17393e+06 -10000
1.95e+06 2.17393e+06 -10000
1.96e+06 2.17393e+06 -10000
1.97e+06 2.17393e+06 -10000
1.98e+06 2.17393e+06 -10000
1.99e+06 2.17393e+06 -10000
2e+06 2.17393e+06 -10000
2.01e+06 2.17393e+06 -10000
840000 2.18393e+06 -10000
850000 2.18393e+06 -10000
860000 2.18393e+06 -10000
870000 2.18393e+06 -10000
880000 2.18393e+06 -10000
890000 2.18393e+06 -10000
900000 2.18393e+06 -10000
910000 2.18393e+06 -10000
920000 2.18393e+06 -10000
930000 2.18393e+06 -10000
940000 2.18393e+06 -10000
950000 2.18393e+06 -10000
960000 2.18393e+06 -10000
970000 2.18393e+06 -10000
980000 2.18393e+06 -10000
990000 2.18393e+06 -10000
1e+06 2.18393e+06 -10000
1.01e+06 2.18393e+06 -10000
1.02e+06 2.18393e+06 -10000
1.03e+06 2.18393e+06 -10000
1.04e+06 2.18393e+06 -10000
1.05e+06 2.18393e+06 -10000
1.06e+06 2.18393e+06 -10000
1.07e+06 2.18393e+06 -10000
1.08e+06 2.18393e+06 -10000
1.09e+06 2.18393e+06 -10000
1.1e+06 2.18393e+06 -10000
1.11e+06 2.18393e+06 -10000
1.12e+06 2.18393e+06 -10000
1.13e+06 2.18393e+06 -10000
1.14e+06 2.18393e+06 -10000
1.15e+06 2.18393e+06 -10000
1.16e+06 2.18393e+06 -10000
1.17e+06 2.18393e+06 -10000
1.18e+06 2.18393e+06 -10000
1.19e+06 2.18393e+06 -10000
1.2e+06 2.18393e+06 -10000
1.21e+06 2.18393e+06 -10000
1.22e+06 2.18393e+06 -10000
1.23e+06 2.18393e+06 -10000
1.24e+06 2.18393e+06 -10000
1.25e+06 2.18393e+06 -10000
1.26e+06 2.18393e+06 -10000
1.27e+06 2.18393e+06 -10000
1.28e+06 2.18393e+06 -10000
1.29e+06 2.18393e+06 -10000
1.3e+06 2.18393e+06 -10000
1.31e+06 2.18393e+06 -10000
1.32e+06 2.18393e+06 -10000
1.33e+06 2.18393e+06 -10000
1.34e+06 2.18393e+06 -10000
1.35e+06 2.18393e+06 -10000
1.36e+06 2.18393e+06 -10000
1.37e+06 2.18393e+06 -10000
1.38e+06 2.18393e+06 -10000
1.39e+06 2.18393e+06 -10000
1.4e+06 2.18393e+06 -10000
1.41e+06 2.18393e+06 -10000
1.42e+06 2.18393e+06 -10000
1.43e+06 2.18393e+06 -10000
1.44e+06 2.18393e+06 -10000
1.45e+06 2.18393e+06 -10000
1.46e+06 2.18393e+06 -10000
1.47e+06 2.18393e+06 -10000
1.48e+06 2.18393e+06 -10000
1.49e+06 2.18393e+06 -10000
1.5e+06 2.18393e+06 -10000
[...]
POINT_DATA 8110
SCALARS grav_accel double
LOOKUP_TABLE default
5.72825e-05 9.25039e-05 0.000125011 0.000140661 0.000137289 0.000123848 0.000108829 9.76156e-05 9.12587e-05 8.66086e-05 7.86049e-05 6.35302e-05 4.19327e-05 2.04677e-05 5.64797e-06 -2.99322e-06 -8.6148e-06 -1.42815e-05 -2.37383e-05 -4.19697e-05 -6.85508e-05 -9.21853e-05 -9.71276e-05 -7.04416e-05 -9.2732e-06 7.3023e-05 0.000157122 0.000239474 0.000330079 0.000433337 0.000537517 0.000625738 0.000691256 0.000737404 0.000772051 0.00080399 0.000838518 0.000874522 0.00090671 0.000929339 0.000935553 0.000919472 0.000884734 0.000838049 0.000773786 0.000686952 0.000585937 0.000475519 0.000363944 0.000256627 -9.61017e-05 -0.000166721 -0.000211171 -0.000224745 -0.000218363 -0.000208905 -0.00020732 -0.000215535 -0.000226722 -0.000228015 -0.000207712 -0.000160525 -8.76344e-05 1.61106e-06 7.91623e-05 0.000116683 0.000109585 6.98772e-05 1.52538e-05 -3.03969e-05 -5.51177e-05 -6.03191e-05 -5.1102e-05 -3.08315e-05 1.58332e-06 4.83002e-05 0.000100181 0.000134967 0.000145427 0.000146909 0.000157689 0.000182359 0.000212754 0.000237526 0.000251003 0.000254149 0.000249666 0.000237385 0.00021409 -0.000331198 -0.000344456 -0.000339016 -0.000313996 8.20582e-05 0.000127288 0.000162888 0.000174292 0.000163276 0.000141574 0.000119386 0.000103356 9.44422e-05 8.83427e-05 7.84852e-05 6.06819e-05 3.63915e-05 1.33218e-05 -1.72534e-06 -9.08115e-06 -1.20748e-05 -1.36428e-05 -1.60943e-05 -2.2342e-05 -3.32626e-05 -4.23854e-05 -3.75938e-05 -5.84087e-06 5.76711e-05 0.000139081 0.000214728 0.00028136 0.000357684 0.00045663 0.00056625 0.000664282 0.000740212 0.000796389 0.000840522 0.000879824 0.000918461 0.00095533 0.000986162 0.00100943 0.00101708 0.000991085 0.000944438 0.000889177 0.000817044 0.000722773 0.000613754 0.000497016 0.000381918 0.000274157 0.000172458 7.5712e-05 -2.08591e-05 -0.00012016 -0.000209357 -0.000266699 -0.000284075 -0.000274462 -0.00025891 -0.000252544 -0.000259835 -0.000275674 -0.000288168 -0.000284447 -0.000255786 -0.000200075 -0.000123125 -4.58031e-05 3.57984e-06 1.26794e-05 -9.42553e-06 -4.5735e-05 -7.76117e-05 -9.56668e-05 -9.77238e-05 -8.52135e-05 -5.92547e-05 -1.63232e-05 4.68106e-05 0.00011969 0.000174179 0.000198207 0.000207329 0.000222604 0.000248943 0.000276367 0.000294653 0.000301399 0.000299312 0.00029191 0.000278492 0.000255296 0.00021987 -0.000336978 -0.00036122 -0.000368254 -0.00036081 -0.000337814 -0.000296461 0.000101705 0.000150962 0.000183365 0.000188826 0.000172262 0.000144517 0.000117022 9.71247e-05 8.55295e-05 7.71594e-05 6.47704e-05 4.44301e-05 1.85412e-05 -4.67593e-06 -1.82008e-05 -2.16359e-05 -1.881e-05 -1.27917e-05 -3.09957e-06 1.14536e-05 2.87141e-05 4.47934e-05 6.46643e-05 0.00010133 0.000161584 0.000232186 0.000289297 0.000331553 0.000384638 0.000468707 0.000573717 0.000675027 0.000758308 0.000823708 0.000877852 0.000924853 0.000967139 0.00100359 0.00103108 0.00105154 0.00105765 0.00102518 0.000963905 0.000893859 0.000804889 0.000698537 0.000583473 0.000467418 0.00035701 0.00025523 0.000159908 6.61341e-05 -3.41127e-05 -0.000142375 -0.000242144 -0.000307918 -0.000329016 -0.000317804 -0.000296749 -0.000284175 -0.000287852 -0.000306462 -0.000331579 -0.000351164 -0.000353548 -0.000330469 -0.000280615 -0.00021582 -0.000158963 -0.000125455 -0.000115284 -0.000120695 -0.000131749 -0.000140311 -0.000140439 -0.000128426 -0.00010029 -4.97241e-05 2.45535e-05 0.000111047 0.000180989 0.000219976 0.000240558 0.000261102 0.000285357 0.000305157 0.000314434 0.000314117 0.000308358 0.00030021 0.000288596 0.000269685 0.000239973 -0.000320859 -0.00035094 -0.000363739 -0.000363268 -0.000353121 -0.000332062 -0.000296035 -0.000243103 0.000108922 0.000156531 0.000184178 0.000186707 0.000169128 0.000141174 0.000113474 9.24081e-05 7.8189e-05 6.60104e-05 4.96637e-05 2.55169e-05 -4.67507e-06 -3.14089e-05 -4.4137e-05 -4.13409e-05 -2.9226e-05 -1.29021e-05 1.07404e-05 4.82329e-05 9.48027e-05 0.00013475 0.000167652 0.00020768 0.000261983 0.00031838 0.000357626 0.00038031 0.00041181 0.000475213 0.000565657 0.000660942 0.000745208 0.000815849 0.000876443 0.000930411 0.000976467 0.0010121 0.00103472 0.00104478 0.00103756 0.000998334 0.000924566 0.000834525 0.000726511 0.000607248 0.000488492 0.000377251 0.000276318 0.000185443 0.000102289 1.9932e-05 -7.22963e-05 -0.00017559 -0.000271451 -0.000334418 -0.000354226 -0.000341394 -0.000316521 -0.000299074 -0.000300051 -0.000321339 -0.000356945 -0.00039603 -0.000425235 -0.00043195 -0.000409665 -0.000362563 -0.000304454 -0.000250176 -0.000209376 -0.000186328 -0.000178275 -0.000178077 -0.000177601 -0.000168985 -0.000143425 -9.2417e-05 -1.62704e-05 7.16137e-05 0.000145086 0.000191074 0.000218232 0.00024048 0.000260629 0.000273364 0.000276287 0.000272581 0.000267006 0.000261832 0.000255793 0.000245435 0.000227344 0.000197383 -0.000291641 -0.000328307 -0.000346948 -0.000350965 -0.000344623 -0.000330725 -0.000308608 -0.000274536 -0.000226102 -0.000167021 0.000102069 0.000144394 0.000169437 0.000173867 0.000162253 0.000142446 0.000121544 0.000103325 8.74039e-05 7.04501e-05 4.86631e-05 1.86099e-05 -1.91559e-05 -5.22883e-05 -6.64158e-05 -5.90533e-05 -3.89761e-05 -1.44503e-05 1.91378e-05 7.16666e-05 0.000133898 0.00018452 0.000223063 0.000264065 0.000313908 0.000361177 0.000390735 0.000403872 0.000421528 0.000464308 0.000532798 0.000612223 0.00068916 0.000761003 0.000827382 0.000886585 0.000934934 0.000969139 0.000985999 0.000983221 0.000957699 0.000904296 0.000817895 0.000707411 0.000581993 0.000454343 0.000336835 0.000234239 0.0001453 6.73852e-05 -1.47198e-06 -6.77641e-05 -0.000142061 -0.00022473 -0.000299481 -0.000345395 -0.000355543 -0.000339636 -0.000315003 -0.000298651 -0.00030191 -0.000326583 -0.00036656 -0.000412515 -0.000452538 -0.00047401 -0.000469343 -0.000438097 -0.000386573 -0.000326086 -0.000270599 -0.000231985 -0.000212682 -0.000207499 -0.000207657 -0.000202954 -0.00018224 -0.000137162 -6.96366e-05 6.43209e-06 7.04578e-05 0.000112365 0.000137306 0.000155027 0.000168336 0.000175111 0.00017556 0.000173802 0.00017425 0.000177563 0.000181452 0.000183612 0.000182719 0.000175339 -0.000246829 -0.000292094 -0.000320401 -0.000332923 -0.000332954 -0.000322841 -0.000304318 -0.000277887 -0.000241906 -0.000194481 -0.000138587 -8.58305e-05 8.36622e-05 0.000119461 0.000144121 0.000155559 0.000157332 0.000153461 0.000145764 0.000134711 0.000119579 9.91952e-05 7.27061e-05 3.77878e-05 -5.77214e-06 -4.59363e-05 -6.69936e-05 -6.39668e-05 -4.46601e-05 -1.8666e-05 1.65026e-05 6.8613e-05 0.000127182 0.000173489 0.000209768 0.000250281 0.000299674 0.000345394 0.000373439 0.000384282 0.00039343 0.000417277 0.000460379 0.000517714 0.000582708 0.000651054 0.000718733 0.000779499 0.000827846 0.000859232 0.000869287 0.000854754 0.000813498 0.000743434 0.000644258 0.000522491 0.000391028 0.000265147 0.000156377 6.64747e-05 -8.87397e-06 -7.27806e-05 -0.000126126 -0.000173769 -0.000223952 -0.000276307 -0.000318138 -0.000336149 -0.000330214 -0.000311341 -0.000293153 -0.00028667 -0.000298035 -0.000325591 -0.000362157 -0.000400618 -0.000433922 -0.000454663 -0.000458102 -0.000442126 -0.000407196 -0.000357981 -0.00030602 -0.000264976 -0.000241669 -0.00023415 -0.000234173 -0.000230352 -0.000211995 -0.000173811 -0.000119828 -6.30091e-05 -1.71458e-05 1.19043e-05 2.62144e-05 3.23784e-05 3.45478e-05 3.43202e-05 3.40478e-05 3.7788e-05 4.86763e-05 6.52302e-05 8.3211e-05 0.000101513 0.000122288 0.000143085 0.000153264 -0.000239006 -0.000276476 -0.000300916 -0.000312998 -0.000313235 -0.000301515 -0.000278861 -0.000247032 -0.000206908 -0.000157835 -0.000102067 -5.09252e-05 5.87257e-05 8.77907e-05 0.000113613 0.000135554 0.000155044 0.00017087 0.000179551 0.000179221 0.000169403 0.000151014 0.00012543 9.01764e-05 4.30229e-05 -7.96588e-06 -4.62467e-05 -6.06616e-05 -5.23235e-05 -3.09959e-05 -6.97626e-07 3.96245e-05 8.13255e-05 0.000114095 0.000143657 0.000182293 0.000232228 0.000280244 0.000311357 0.000323037 0.000325401 0.000332018 0.000350218 0.000382811 0.000430043 0.00048759 0.000548573 0.000605287 0.000650217 0.000676169 0.000676368 0.000647668 0.000591574 0.000511546 0.000411634 0.000298616 0.000182569 7.541e-05 -1.44615e-05 -8.72509e-05 -0.000147104 -0.00019578 -0.000233152 -0.000262457 -0.000288919 -0.000310855 -0.000318598 -0.000307081 -0.00028483 -0.000266161 -0.000259718 -0.000267731 -0.000288757 -0.000317271 -0.000344584 -0.000366615 -0.000383685 -0.000396831 -0.000406331 -0.000409557 -0.000401003 -0.000375884 -0.000338082 -0.000300239 -0.000273878 -0.000261669 -0.000256668 -0.000247525 -0.000226007 -0.000190959 -0.000148689 -0.000109808 -8.24861e-05 -6.93916e-05 -7.01749e-05 -8.07681e-05 -9.44921e-05 -0.000104885 -0.000106826 -9.64228e-05 -7.24503e-05 -3.94407e-05 -5.07346e-06 2.96023e-05 7.02501e-05 0.000116008 -0.000219966 -0.000251137 -0.00027479 -0.000289705 -0.000292986 -0.00028205 -0.000257658 -0.000222628 -0.00017886 -0.000127868 -7.20221e-05 -2.06506e-05 3.41307e-05 5.69674e-05 8.39925e-05 0.000116304 0.000152633 0.00018632 0.00020994 0.000221056 0.000220266 0.000211064 0.000194569 0.000163669 0.000111972 4.38619e-05 -2.1412e-05 -6.3482e-05 -7.29903e-05 -5.86467e-05 -3.40511e-05 -7.0791e-06 1.61133e-05 3.43348e-05 5.63579e-05 9.12559e-05 0.00013829 0.000185824 0.000218695 0.000230145 0.000225831 0.000217325 0.000213945 0.000222936 0.000248123 0.000287954 0.000337084 0.000387174 0.000427086 0.000444255 0.000429199 0.000382676 0.000314794 0.000236679 0.00015416 7.04485e-05 -1.00115e-05 -8.19178e-05 -0.000142939 -0.000194267 -0.000237303 -0.000271451 -0.000295695 -0.000311407 -0.000321241 -0.000321199 -0.000302834 -0.000268458 -0.000235074 -0.000219726 -0.000225822 -0.000246632 -0.000274476 -0.000300496 -0.000315511 -0.000320343 -0.000323555 -0.000334277 -0.000356028 -0.000384544 -0.000406922 -0.000408399 -0.000384602 -0.000346179 -0.000309818 -0.000284449 -0.000266196 -0.000245753 -0.000217721 -0.000184003 -0.000151497 -0.000126497 -0.00011255 -0.000111693 -0.000124953 -0.000150673 -0.000180353 -0.000202201 -0.000207162 -0.000190851 -0.000154299 -0.000105901 -5.71384e-05 -9.94248e-06 4.28503e-05 -0.000196824 -0.000223587 -0.000247115 -0.000265738 -0.000273965 -0.000267093 -0.000246061 -0.00021352 -0.000171557 -0.000123752 -7.14014e-05 -1.92222e-05 1.96297e-05 1.37241e-05 3.26732e-05 6.04632e-05 9.94343e-05 0.000146992 0.000192347 0.000225511 0.000244252 0.00025199 0.000254538 0.000248413 0.000221694 0.000164295 7.9673e-05 -9.9515e-06 -7.7881e-05 -0.000105899 -0.000100059 -8.02115e-05 -6.22096e-05 -5.19314e-05 -4.52119e-05 -3.06743e-05 -1.75548e-06 3.71124e-05 7.60575e-05 0.000102916 0.000109423 9.76328e-05 7.68532e-05 5.80704e-05 5.03782e-05 5.8416e-05 8.3885e-05 0.000125109 0.000173692 0.000212557 0.000221035 0.000188346 0.00012424 5.0513e-05 -1.65456e-05 -7.3014e-05 -0.000120426 -0.000159466 -0.000192207 -0.00022221 -0.000251047 -0.000277686 -0.000299467 -0.000314398 -0.000323789 -0.000327121 -0.000316118 -0.000281805 -0.000232172 -0.000191985 -0.000179404 -0.000195015 -0.00022469 -0.000254 -0.000272728 -0.0002752 -0.000268338 -0.000267833 -0.000287313 -0.000330829 -0.000389843 -0.000442749 -0.000465241 -0.00044662 -0.000396652 -0.000337882 -0.000288508 -0.000250779 -0.00021834 -0.000187224 -0.000158751 -0.000136014 -0.000121149 -0.00011585 -0.00012229 -0.000141935 -0.000174173 -0.000211907 -0.000240871 -0.000248275 -0.000228221 -0.000183872 -0.000127533 -7.23438e-05 -1.95601e-05 3.70514e-05 9.73174e-05 0.000152321 0.000188001 0.000173244 -0.000173735 -0.000197321 -0.00022075 -0.000243103 -0.000258688 -0.000261196 -0.000250127 -0.000227479 -0.000196062 -0.00015839 -0.000113127 -6.081e-05 -1.37634e-05 1.43184e-05 -4.22734e-06 1.40131e-05 4.33311e-05 8.48693e-05 0.000135112 0.000182073 0.000215742 0.000235472 0.000248493 0.000258657 0.000258223 0.000231772 0.000169555 8.0246e-05 -1.48333e-05 -9.21349e-05 -0.000132126 -0.000137008 -0.000124763 -0.000113676 -0.000111677 -0.000113608 -0.000107598 -8.9073e-05 -6.46682e-05 -4.31728e-05 -3.16409e-05 -3.5645e-05 -5.5267e-05 -8.30262e-05 -0.000107304 -0.00011907 -0.000114275 -8.9626e-05 -4.48761e-05 1.02079e-05 5.2326e-05 5.49945e-05 9.41319e-06 -6.61812e-05 -0.000140833 -0.000195847 -0.000230391 -0.000249758 -0.000257853 -0.00026033 -0.00026444 -0.00027279 -0.000284129 -0.000296082 -0.00030785 -0.000319226 -0.000324466 -0.000309835 -0.00026509 -0.000204149 -0.000158667 -0.000147391 -0.000167948 -0.000200162 -0.000224873 -0.000233278 -0.000225352 -0.000214422 -0.000219696 -0.000255968 -0.000327 -0.000417614 -0.000495468 -0.000529046 -0.00050446 -0.000431922 -0.000341234 -0.000263174 -0.000207953 -0.000170315 -0.000143875 -0.000124827 -0.000111735 -0.000104995 -0.000106234 -0.000117882 -0.000139898 -0.00016986 -0.000203413 -0.000230126 -0.000236943 -0.00021576 -0.000170935 -0.000116 -6.13835e-05 -8.62927e-06 4.42045e-05 9.54276e-05 0.000140774 0.000170843 0.000176959 0.000155848 0.000107185 4.09314e-05 -1.93394e-05 -5.77062e-05 -0.000152646 -0.000173062 -0.000196815 -0.000224103 -0.000250292 -0.000268208 -0.00027383 -0.00026769 -0.000252687 -0.000229061 -0.00019221 -0.00014049 -8.41156e-05 -3.67231e-05 -2.26305e-05 -2.29075e-06 3.032e-05 7.11343e-05 0.000113713 0.00014946 0.000174456 0.000190641 0.000204099 0.000216414 0.000217198 0.000190789 0.000131668 5.34836e-05 -2.65976e-05 -9.46411e-05 -0.000135385 -0.000147663 -0.00014423 -0.000141377 -0.000148479 -0.000161419 -0.000168631 -0.000167242 -0.00016487 -0.000167217 -0.000174456 -0.000188175 -0.000210058 -0.000235383 -0.000253826 -0.000257294 -0.000242156 -0.000206314 -0.000150773 -8.7744e-05 -4.43358e-05 -4.6697e-05 -9.84489e-05 -0.000175888 -0.000244848 -0.000288132 -0.000309128 -0.000315326 -0.000309314 -0.000294964 -0.000280768 -0.000272552 -0.000271866 -0.000278805 -0.000293451 -0.00031173 -0.000321531 -0.000304583 -0.000252359 -0.000184465 -0.000136852 -0.00012704 -0.000146213 -0.000172658 -0.000188513 -0.000187211 -0.000173383 -0.000163131 -0.000175957 -0.000227436 -0.000320521 -0.000434048 -0.000526871 -0.000563449 -0.000528504 -0.000432152 -0.000312435 -0.000213166 -0.000150369 -0.000116878 -0.000100956 -9.38743e-05 -9.1286e-05 -9.25847e-05 -9.99311e-05 -0.000115356 -0.000136358 -0.000158518 -0.000179632 -0.000195408 -0.000196924 -0.000176869 -0.000138189 -8.94177e-05 -3.72502e-05 1.25085e-05 5.584e-05 9.23093e-05 0.00012146 0.00013878 0.000138336 0.000116929 7.52382e-05 2.27887e-05 -2.38628e-05 -5.47565e-05 -7.12244e-05 -8.01112e-05 -8.73932e-05 -9.65017e-05 -0.000108058 -0.000120404 -0.000133199 -0.000149648 -0.000174335 -0.000209119 -0.00024964 -0.000287381 -0.000314765 -0.000328619 -0.000329965 -0.000317299 -0.000285027 -0.000231336 -0.000164142 -9.48782e-05 -2.6064e-05 4.86088e-05 0.000129718 0.000202781 -4.00321e-05 -1.63846e-05 2.02222e-05 5.71396e-05 8.43587e-05 0.000101071 0.000112841 0.000123547 0.000134962 0.000144905 0.000143233 0.000119044 7.27914e-05 1.70032e-05 -3.71164e-05 -8.38673e-05 -0.000113954 -0.000124314 -0.000125141 -0.000131665 -0.000152949 -0.000183523 -0.000210555 -0.000232541 -0.000257446 -0.000284116 -0.000303481 -0.000315228 -0.000326366 -0.000339231 -0.000345447 -0.000336544 -0.000307723 -0.00025892 -0.000195751 -0.00013376 -9.884e-05 -0.000110857 -0.000164316 -0.000231972 -0.000284242 -0.000312071 -0.000324491 -0.000328163 -0.000319688 -0.000298016 -0.000272229 -0.000253025 -0.000246138 -0.000253585 -0.000274302 -0.000299047 -0.000309516 -0.000287524 -0.000232545 -0.000167673 -0.000125037 -0.000117313 -0.000130704 -0.000146601 -0.000152035 -0.000143486 -0.000126773 -0.000116785 -0.000132373 -0.000188062 -0.000285566 -0.000404165 -0.000500849 -0.000537291 -0.000497679 -0.000389427 -0.000258002 -0.000154738 -9.70266e-05 -7.52966e-05 -7.38103e-05 -8.06693e-05 -8.92092e-05 -9.80235e-05 -0.000109478 -0.00012446 -0.000139549 -0.000151213 -0.000158934 -0.000161819 -0.000156017 -0.000137259 -0.000105291 -6.25679e-05 -1.39902e-05 3.08348e-05 6.48212e-05 8.90677e-05 0.000104967 0.000110831 0.000103478 8.10226e-05 4.55257e-05 5.49857e-06 -2.94433e-05 -5.4308e-05 -6.93894e-05 -7.97795e-05 -8.85673e-05 -9.72664e-05 -0.00010535 -0.000111059 -0.000117224 -0.000130258 -0.000156343 -0.000199282 -0.000254597 -0.00031091 -0.000357757 -0.00038724 -0.000397474 -0.000387194 -0.000353277 -0.000294647 -0.000216556 -0.000129107 -3.71119e-05 6.24949e-05 0.000165744 0.000254795 0.000310645 0.00033397 0.000335001 0.000322757 -5.29432e-05 -2.64428e-05 1.28676e-05 4.31412e-05 5.21894e-05 5.0877e-05 5.3714e-05 6.25536e-05 7.23425e-05 7.68079e-05 6.91503e-05 4.63565e-05 1.40408e-05 -1.84694e-05 -4.63521e-05 -6.84971e-05 -8.07182e-05 -8.09362e-05 -7.93189e-05 -9.31959e-05 -0.000130325 -0.000180708 -0.000229941 -0.000277431 -0.000328626 -0.000371035 -0.00038721 -0.000380787 -0.000369967 -0.000364998 -0.00035998 -0.000345034 -0.000311423 -0.000260561 -0.000204701 -0.000160797 -0.000148638 -0.000176987 -0.000228694 -0.000275489 -0.000298701 -0.000303288 -0.000304188 -0.000304997 -0.000295311 -0.000269527 -0.000237475 -0.000213877 -0.000207115 -0.000218957 -0.000246069 -0.000274207 -0.00028098 -0.000253458 -0.000201632 -0.000149056 -0.000117985 -0.00011312 -0.000120386 -0.000125468 -0.000120925 -0.000106203 -8.68207e-05 -7.58337e-05 -8.84135e-05 -0.000134923 -0.000217132 -0.000321018 -0.000410671 -0.000447171 -0.000412062 -0.000312332 -0.000194619 -0.000107113 -6.58338e-05 -6.02432e-05 -7.39053e-05 -9.38311e-05 -0.000111333 -0.000124093 -0.000134066 -0.000142079 -0.000146907 -0.000147551 -0.000144044 -0.000136468 -0.000124019 -0.000105028 -7.76605e-05 -4.12202e-05 1.18567e-06 3.99083e-05 6.7732e-05 8.61905e-05 9.68366e-05 9.82346e-05 8.79855e-05 6.50167e-05 3.21036e-05 -2.70632e-06 -3.23685e-05 -5.4454e-05 -6.98426e-05 -8.13836e-05 -9.07917e-05 -9.97177e-05 -0.000106869 -0.000109989 -0.000114028 -0.00012707 -0.000155495 -0.00020352 -0.000266554 -0.000332022 -0.000386681 -0.000419479 -0.000427343 -0.000410543 -0.000369216 -0.000303497 -0.000217461 -0.00012076 -1.83926e-05 9.1831e-05 0.000202793 0.00029384 0.000347813 0.000366731 0.000364168 0.000351951 0.000330712 0.000291752 -6.10213e-05 -3.38493e-05 4.51622e-06 2.55836e-05 1.86597e-05 6.20796e-06 8.77635e-06 2.33228e-05 3.52994e-05 3.32456e-05 1.56212e-05 -1.1629e-05 -3.8337e-05 -5.5714e-05 -6.23079e-05 -6.06359e-05 -5.14008e-05 -3.69071e-05 -2.98709e-05 -4.75002e-05 -9.40604e-05 -0.000155534 -0.000218668 -0.00028473 -0.00035349 -0.000400081 -0.000400756 -0.000365275 -0.000328118 -0.000309047 -0.000302541 -0.000293438 -0.000270145 -0.000237237 -0.000209151 -0.000199852 -0.00021961 -0.000264729 -0.00031063 -0.000330288 -0.000317683 -0.000291943 -0.000272649 -0.000261156 -0.000244469 -0.000214511 -0.000181084 -0.000159109 -0.000156054 -0.000172895 -0.000204457 -0.000233834 -0.000237917 -0.000209178 -0.000164966 -0.000128832 -0.000112218 -0.000111019 -0.000112515 -0.000107741 -9.43716e-05 -7.39797e-05 -5.25185e-05 -4.05266e-05 -4.72937e-05 -7.82822e-05 -0.000135688 -0.00021343 -0.000287748 -0.000324694 -0.000301779 -0.000228035 -0.000143077 -8.45936e-05 -6.45785e-05 -7.376e-05 -9.83071e-05 -0.0001263 -0.000148114 -0.000159884 -0.000162572 -0.000158934 -0.000151983 -0.000142657 -0.000130212 -0.000114244 -9.55655e-05 -7.50352e-05 -5.14396e-05 -2.29058e-05 9.57878e-06 4.00288e-05 6.37213e-05 8.1734e-05 9.39352e-05 9.71782e-05 8.88265e-05 6.75761e-05 3.59197e-05 1.53665e-06 -2.77028e-05 -4.97984e-05 -6.60205e-05 -7.79776e-05 -8.87578e-05 -0.00010096 -0.000111936 -0.000119092 -0.000126989 -0.000144104 -0.000176025 -0.000225563 -0.000287135 -0.000349237 -0.000396595 -0.000418159 -0.000411524 -0.000378745 -0.00032416 -0.000251498 -0.000165318 -7.15326e-05 2.73112e-05 0.000133268 0.000236283 0.00031625 0.00035979 0.000370486 0.000362528 0.000349252 0.000332019 0.000298406 -6.9012e-05 -4.64992e-05 -1.58608e-05 -6.55321e-06 -2.45851e-05 -4.08004e-05 -3.01243e-05 -3.80523e-07 2.02655e-05 1.25865e-05 -1.98666e-05 -6.18665e-05 -9.54723e-05 -0.000107433 -9.78057e-05 -7.3208e-05 -4.00447e-05 -8.15778e-06 6.1203e-06 -9.29502e-06 -5.20408e-05 -0.000108531 -0.000170341 -0.000241364 -0.000316279 -0.000361198 -0.00034623 -0.00028