# vtk DataFile Version 2.0
3D Data
ASCII
DATASET UNSTRUCTURED_GRID
POINTS 7482 double 
1.317e+06 2.13836e+06 -10000
1.327e+06 2.13836e+06 -10000
1.337e+06 2.13836e+06 -10000
1.347e+06 2.13836e+06 -10000
1.357e+06 2.13836e+06 -10000
1.487e+06 2.13836e+06 -10000
1.297e+06 2.14836e+06 -10000
1.307e+06 2.14836e+06 -10000
1.317e+06 2.14836e+06 -10000
1.327e+06 2.14836e+06 -10000
1.337e+06 2.14836e+06 -10000
1.347e+06 2.14836e+06 -10000
1.357e+06 2.14836e+06 -10000
1.367e+06 2.14836e+06 -10000
1.467e+06 2.14836e+06 -10000
1.477e+06 2.14836e+06 -10000
1.487e+06 2.14836e+06 -10000
1.497e+06 2.14836e+06 -10000
1.547e+06 2.14836e+06 -10000
1.557e+06 2.14836e+06 -10000
1.567e+06 2.14836e+06 -10000
1.587e+06 2.14836e+06 -10000
1.597e+06 2.14836e+06 -10000
1.287e+06 2.15836e+06 -10000
1.297e+06 2.15836e+06 -10000
1.307e+06 2.15836e+06 -10000
1.317e+06 2.15836e+06 -10000
1.327e+06 2.15836e+06 -10000
1.337e+06 2.15836e+06 -10000
1.347e+06 2.15836e+06 -10000
1.357e+06 2.15836e+06 -10000
1.367e+06 2.15836e+06 -10000
1.377e+06 2.15836e+06 -10000
1.457e+06 2.15836e+06 -10000
1.467e+06 2.15836e+06 -10000
1.477e+06 2.15836e+06 -10000
1.487e+06 2.15836e+06 -10000
1.497e+06 2.15836e+06 -10000
1.507e+06 2.15836e+06 -10000
1.527e+06 2.15836e+06 -10000
1.537e+06 2.15836e+06 -10000
1.547e+06 2.15836e+06 -10000
1.557e+06 2.15836e+06 -10000
1.567e+06 2.15836e+06 -10000
1.577e+06 2.15836e+06 -10000
1.587e+06 2.15836e+06 -10000
1.597e+06 2.15836e+06 -10000
1.607e+06 2.15836e+06 -10000
1.617e+06 2.15836e+06 -10000
1.627e+06 2.15836e+06 -10000
1.967e+06 2.15836e+06 -10000
1.277e+06 2.16836e+06 -10000
1.287e+06 2.16836e+06 -10000
1.297e+06 2.16836e+06 -10000
1.307e+06 2.16836e+06 -10000
1.317e+06 2.16836e+06 -10000
1.327e+06 2.16836e+06 -10000
1.337e+06 2.16836e+06 -10000
1.347e+06 2.16836e+06 -10000
1.357e+06 2.16836e+06 -10000
1.367e+06 2.16836e+06 -10000
1.377e+06 2.16836e+06 -10000
1.427e+06 2.16836e+06 -10000
1.437e+06 2.16836e+06 -10000
1.447e+06 2.16836e+06 -10000
1.457e+06 2.16836e+06 -10000
1.467e+06 2.16836e+06 -10000
1.477e+06 2.16836e+06 -10000
1.487e+06 2.16836e+06 -10000
1.497e+06 2.16836e+06 -10000
1.507e+06 2.16836e+06 -10000
1.517e+06 2.16836e+06 -10000
1.527e+06 2.16836e+06 -10000
1.537e+06 2.16836e+06 -10000
1.547e+06 2.16836e+06 -10000
1.557e+06 2.16836e+06 -10000
1.567e+06 2.16836e+06 -10000
1.577e+06 2.16836e+06 -10000
1.587e+06 2.16836e+06 -10000
1.597e+06 2.16836e+06 -10000
1.607e+06 2.16836e+06 -10000
1.617e+06 2.16836e+06 -10000
1.627e+06 2.16836e+06 -10000
1.637e+06 2.16836e+06 -10000
1.957e+06 2.16836e+06 -10000
1.967e+06 2.16836e+06 -10000
1.977e+06 2.16836e+06 -10000
1.247e+06 2.17836e+06 -10000
1.257e+06 2.17836e+06 -10000
1.267e+06 2.17836e+06 -10000
1.277e+06 2.17836e+06 -10000
1.287e+06 2.17836e+06 -10000
1.297e+06 2.17836e+06 -10000
1.307e+06 2.17836e+06 -10000
1.317e+06 2.17836e+06 -10000
1.327e+06 2.17836e+06 -10000
1.337e+06 2.17836e+06 -10000
1.347e+06 2.17836e+06 -10000
1.357e+06 2.17836e+06 -10000
1.367e+06 2.17836e+06 -10000
1.377e+06 2.17836e+06 -10000
1.387e+06 2.17836e+06 -10000
1.397e+06 2.17836e+06 -10000
1.407e+06 2.17836e+06 -10000
1.417e+06 2.17836e+06 -10000
1.427e+06 2.17836e+06 -10000
1.437e+06 2.17836e+06 -10000
1.447e+06 2.17836e+06 -10000
1.457e+06 2.17836e+06 -10000
1.467e+06 2.17836e+06 -10000
1.477e+06 2.17836e+06 -10000
1.487e+06 2.17836e+06 -10000
1.497e+06 2.17836e+06 -10000
1.507e+06 2.17836e+06 -10000
1.517e+06 2.17836e+06 -10000
1.527e+06 2.17836e+06 -10000
1.537e+06 2.17836e+06 -10000
1.547e+06 2.17836e+06 -10000
1.557e+06 2.17836e+06 -10000
1.567e+06 2.17836e+06 -10000
1.577e+06 2.17836e+06 -10000
1.587e+06 2.17836e+06 -10000
1.597e+06 2.17836e+06 -10000
1.607e+06 2.17836e+06 -10000
1.617e+06 2.17836e+06 -10000
1.627e+06 2.17836e+06 -10000
1.637e+06 2.17836e+06 -10000
1.647e+06 2.17836e+06 -10000
1.657e+06 2.17836e+06 -10000
1.667e+06 2.17836e+06 -10000
1.727e+06 2.17836e+06 -10000
1.947e+06 2.17836e+06 -10000
1.957e+06 2.17836e+06 -10000
1.967e+06 2.17836e+06 -10000
1.977e+06 2.17836e+06 -10000
1.987e+06 2.17836e+06 -10000
1.007e+06 2.18836e+06 -10000
1.017e+06 2.18836e+06 -10000
1.027e+06 2.18836e+06 -10000
1.037e+06 2.18836e+06 -10000
1.047e+06 2.18836e+06 -10000
1.057e+06 2.18836e+06 -10000
1.097e+06 2.18836e+06 -10000
1.237e+06 2.18836e+06 -10000
1.247e+06 2.18836e+06 -10000
1.257e+06 2.18836e+06 -10000
1.267e+06 2.18836e+06 -10000
1.277e+06 2.18836e+06 -10000
1.287e+06 2.18836e+06 -10000
1.297e+06 2.18836e+06 -10000
1.307e+06 2.18836e+06 -10000
1.317e+06 2.18836e+06 -10000
1.327e+06 2.18836e+06 -10000
1.337e+06 2.18836e+06 -10000
1.347e+06 2.18836e+06 -10000
1.357e+06 2.18836e+06 -10000
1.367e+06 2.18836e+06 -10000
1.377e+06 2.18836e+06 -10000
1.387e+06 2.18836e+06 -10000
1.397e+06 2.18836e+06 -10000
1.407e+06 2.18836e+06 -10000
1.417e+06 2.18836e+06 -10000
1.427e+06 2.18836e+06 -10000
1.437e+06 2.18836e+06 -10000
1.447e+06 2.18836e+06 -10000
1.457e+06 2.18836e+06 -10000
1.467e+06 2.18836e+06 -10000
1.477e+06 2.18836e+06 -10000
1.487e+06 2.18836e+06 -10000
1.497e+06 2.18836e+06 -10000
1.507e+06 2.18836e+06 -10000
1.517e+06 2.18836e+06 -10000
1.527e+06 2.18836e+06 -10000
1.537e+06 2.18836e+06 -10000
1.547e+06 2.18836e+06 -10000
1.557e+06 2.18836e+06 -10000
1.567e+06 2.18836e+06 -10000
1.577e+06 2.18836e+06 -10000
1.587e+06 2.18836e+06 -10000
1.597e+06 2.18836e+06 -10000
1.607e+06 2.18836e+06 -10000
1.617e+06 2.18836e+06 -10000
1.627e+06 2.18836e+06 -10000
1.637e+06 2.18836e+06 -10000
1.647e+06 2.18836e+06 -10000
1.657e+06 2.18836e+06 -10000
1.667e+06 2.18836e+06 -10000
1.677e+06 2.18836e+06 -10000
1.687e+06 2.18836e+06 -10000
1.697e+06 2.18836e+06 -10000
1.717e+06 2.18836e+06 -10000
1.727e+06 2.18836e+06 -10000
1.737e+06 2.18836e+06 -10000
1.937e+06 2.18836e+06 -10000
1.947e+06 2.18836e+06 -10000
1.957e+06 2.18836e+06 -10000
1.967e+06 2.18836e+06 -10000
1.977e+06 2.18836e+06 -10000
1.987e+06 2.18836e+06 -10000
1.997e+06 2.18836e+06 -10000
997000 2.19836e+06 -10000
1.007e+06 2.19836e+06 -10000
1.017e+06 2.19836e+06 -10000
1.027e+06 2.19836e+06 -10000
1.037e+06 2.19836e+06 -10000
1.047e+06 2.19836e+06 -10000
1.057e+06 2.19836e+06 -10000
1.067e+06 2.19836e+06 -10000
1.077e+06 2.19836e+06 -10000
1.087e+06 2.19836e+06 -10000
1.097e+06 2.19836e+06 -10000
1.107e+06 2.19836e+06 -10000
1.117e+06 2.19836e+06 -10000
1.127e+06 2.19836e+06 -10000
1.137e+06 2.19836e+06 -10000
1.147e+06 2.19836e+06 -10000
1.157e+06 2.19836e+06 -10000
1.167e+06 2.19836e+06 -10000
1.177e+06 2.19836e+06 -10000
1.187e+06 2.19836e+06 -10000
1.197e+06 2.19836e+06 -10000
1.207e+06 2.19836e+06 -10000
1.217e+06 2.19836e+06 -10000
1.227e+06 2.19836e+06 -10000
1.237e+06 2.19836e+06 -10000
1.247e+06 2.19836e+06 -10000
1.257e+06 2.19836e+06 -10000
1.267e+06 2.19836e+06 -10000
1.277e+06 2.19836e+06 -10000
1.287e+06 2.19836e+06 -10000
1.297e+06 2.19836e+06 -10000
1.307e+06 2.19836e+06 -10000
1.317e+06 2.19836e+06 -10000
1.327e+06 2.19836e+06 -10000
1.337e+06 2.19836e+06 -10000
1.347e+06 2.19836e+06 -10000
1.357e+06 2.19836e+06 -10000
1.367e+06 2.19836e+06 -10000
1.377e+06 2.19836e+06 -10000
1.387e+06 2.19836e+06 -10000
1.397e+06 2.19836e+06 -10000
1.407e+06 2.19836e+06 -10000
1.417e+06 2.19836e+06 -10000
1.427e+06 2.19836e+06 -10000
1.437e+06 2.19836e+06 -10000
1.447e+06 2.19836e+06 -10000
1.457e+06 2.19836e+06 -10000
1.467e+06 2.19836e+06 -10000
1.477e+06 2.19836e+06 -10000
1.487e+06 2.19836e+06 -10000
1.497e+06 2.19836e+06 -10000
1.507e+06 2.19836e+06 -10000
1.517e+06 2.19836e+06 -10000
1.527e+06 2.19836e+06 -10000
1.537e+06 2.19836e+06 -10000
1.547e+06 2.19836e+06 -10000
1.557e+06 2.19836e+06 -10000
1.567e+06 2.19836e+06 -10000
1.577e+06 2.19836e+06 -10000
1.587e+06 2.19836e+06 -10000
1.597e+06 2.19836e+06 -10000
1.607e+06 2.19836e+06 -10000
1.617e+06 2.19836e+06 -10000
1.627e+06 2.19836e+06 -10000
1.637e+06 2.19836e+06 -10000
1.647e+06 2.19836e+06 -10000
1.657e+06 2.19836e+06 -10000
1.667e+06 2.19836e+06 -10000
1.677e+06 2.19836e+06 -10000
1.687e+06 2.19836e+06 -10000
1.697e+06 2.19836e+06 -10000
1.707e+06 2.19836e+06 -10000
1.717e+06 2.19836e+06 -10000
1.727e+06 2.19836e+06 -10000
1.737e+06 2.19836e+06 -10000
1.747e+06 2.19836e+06 -10000
1.937e+06 2.19836e+06 -10000
1.947e+06 2.19836e+06 -10000
1.957e+06 2.19836e+06 -10000
1.967e+06 2.19836e+06 -10000
1.977e+06 2.19836e+06 -10000
1.987e+06 2.19836e+06 -10000
1.997e+06 2.19836e+06 -10000
2.007e+06 2.19836e+06 -10000
987000 2.20836e+06 -10000
997000 2.20836e+06 -10000
1.007e+06 2.20836e+06 -10000
1.017e+06 2.20836e+06 -10000
1.027e+06 2.20836e+06 -10000
1.037e+06 2.20836e+06 -10000
1.047e+06 2.20836e+06 -10000
1.057e+06 2.20836e+06 -10000
1.067e+06 2.20836e+06 -10000
1.077e+06 2.20836e+06 -10000
1.087e+06 2.20836e+06 -10000
1.097e+06 2.20836e+06 -10000
1.107e+06 2.20836e+06 -10000
1.117e+06 2.20836e+06 -10000
1.127e+06 2.20836e+06 -10000
1.137e+06 2.20836e+06 -10000
1.147e+06 2.20836e+06 -10000
1.157e+06 2.20836e+06 -10000
1.167e+06 2.20836e+06 -10000
1.177e+06 2.20836e+06 -10000
1.187e+06 2.20836e+06 -10000
1.197e+06 2.20836e+06 -10000
1.207e+06 2.20836e+06 -10000
1.217e+06 2.20836e+06 -10000
1.227e+06 2.20836e+06 -10000
1.237e+06 2.20836e+06 -10000
1.247e+06 2.20836e+06 -10000
1.257e+06 2.20836e+06 -10000
1.267e+06 2.20836e+06 -10000
1.277e+06 2.20836e+06 -10000
1.287e+06 2.20836e+06 -10000
1.297e+06 2.20836e+06 -10000
1.307e+06 2.20836e+06 -10000
1.317e+06 2.20836e+06 -10000
1.327e+06 2.20836e+06 -10000
1.337e+06 2.20836e+06 -10000
1.347e+06 2.20836e+06 -10000
1.357e+06 2.20836e+06 -10000
1.367e+06 2.20836e+06 -10000
1.377e+06 2.20836e+06 -10000
1.387e+06 2.20836e+06 -10000
1.397e+06 2.20836e+06 -10000
1.407e+06 2.20836e+06 -10000
1.417e+06 2.20836e+06 -10000
1.427e+06 2.20836e+06 -10000
1.437e+06 2.20836e+06 -10000
1.447e+06 2.20836e+06 -10000
1.457e+06 2.20836e+06 -10000
1.467e+06 2.20836e+06 -10000
1.477e+06 2.20836e+06 -10000
1.487e+06 2.20836e+06 -10000
1.497e+06 2.20836e+06 -10000
1.507e+06 2.20836e+06 -10000
1.517e+06 2.20836e+06 -10000
1.527e+06 2.20836e+06 -10000
1.537e+06 2.20836e+06 -10000
1.547e+06 2.20836e+06 -10000
1.557e+06 2.20836e+06 -10000
[...]
POINT_DATA 7482
SCALARS T double
LOOKUP_TABLE default
0.758158 11.8051 12.2104 13.6054 14.7369 2.41234 -13.0407 -2.16949 11.8494 16.9973 11.9547 10.1051 11.3803 7.89611 26.1816 14.9821 2.04616 -7.52214 -11.9843 -9.92504 -2.48039 13.1006 22.599 6.51316 3.14796 3.99499 7.65342 12.7369 5.51723 -0.559827 1.73826 -5.60123 -16.9708 17.9816 19.5521 11.1421 -0.910898 -4.31669 -2.91815 11.7328 5.3662 -7.55013 -9.44024 -9.56426 -3.88555 12.7587 33.4883 42.8586 30.6021 1.26784 -132.931 32.4831 17.2405 4.35737 -1.29661 -2.8728 0.376687 -8.64493 -19.5666 -19.0189 -24.3214 -37.1729 -9.64345 -5.09623 -8.29912 -3.31265 4.83314 -0.60475 -13.187 -12.5304 -5.31579 5.10312 12.0886 8.82213 1.7434 -3.06121 -6.12592 2.55024 32.1465 62.0858 60.7514 32.3185 -8.74044 -31.5675 -123.511 -165.625 -170.372 60.7942 67.837 62.7525 41.2289 13.4131 -4.68404 -12.7908 -16.0564 -18.4244 -28.4265 -39.5565 -43.7405 -49.9029 -60.3614 -61.7275 -58.2576 -53.2649 -46.0055 -34.7065 -24.0043 -19.2058 -12.9406 -7.73952 -16.3054 -29.93 -29.4872 -18.9131 -6.69087 0.199787 2.74837 3.35655 3.60631 8.15337 22.4846 51.4494 69.3058 47.4698 8.67645 -32.2265 -54.447 -58.9343 -59.2243 -50.192 -52.3895 -109.026 -143.331 -165.508 -182.594 -183.046 22.9688 26.8721 31.787 25.6571 14.5034 3.2204 -37.0791 49.9556 61.4219 74.2865 71.1208 37.9356 -4.61498 -23.1311 -30.19 -32.7997 -33.5855 -37.9558 -47.9511 -58.4043 -70.7692 -78.7944 -77.0605 -72.8998 -67.1062 -54.8557 -32.0713 -3.12009 14.6337 13.7555 -4.91362 -29.1414 -43.3048 -41.9483 -34.7481 -27.0291 -18.7456 -11.0478 -1.32064 9.05692 19.1555 28.2868 37.3074 32.0144 5.01981 -22.3232 -53.282 -70.2794 -69.8649 -66.0781 -63.1658 -59.0637 -57.587 -56.1261 -71.6229 -89.2388 -73.6292 -96.3843 -138.894 -157.231 -167.999 -180.214 -192.624 -178.084 26.6459 26.1127 29.9974 32.3278 25.6502 11.5644 1.79185 -7.22553 -14.1214 -18.1109 -20.8229 -21.5547 -15.731 -2.32285 1.20366 -8.17929 -15.075 -10.0542 -8.51404 -5.84227 -3.27395 -2.1852 1.46754 12.9216 35.0128 63.3556 81.8269 72.1912 20.84 -24.7263 -33.3891 -33.6919 -35.3717 -38.4892 -43.2835 -54.938 -69.7335 -81.9128 -84.3287 -81.154 -73.1816 -57.7767 -30.3158 13.3491 61.0305 86.3035 66.225 13.2227 -29.9968 -49.2987 -49.9154 -43.585 -37.2741 -29.7518 -17.9396 -1.74524 15.3607 26.4207 28.0292 22.2036 7.72269 -7.39841 -21.2626 -50.5849 -71.1965 -69.3045 -60.3117 -57.242 -62.2133 -69.1041 -70.8802 -68.0981 -70.4917 -77.8339 -82.5491 -67.9699 -113.329 -146.356 -161.351 -170.57 -178.559 -187.827 -182.255 -133.951 24.4678 25.4839 26.0584 27.6739 22.9484 11.7307 -1.19553 -11.0008 -15.3367 -15.3484 -11.9285 -7.65869 -4.41703 -3.83465 -3.08569 -6.10334 -18.2613 -30.8682 -34.2952 -33.6675 -30.094 -27.2628 -26.8884 -21.0492 -4.02929 22.4592 58.4266 85.7015 68.1982 8.61205 -36.8833 -43.5611 -42.8434 -44.9215 -49.3579 -55.8103 -66.6655 -77.3347 -81.2791 -79.9511 -73.5413 -53.4477 -17.1256 34.1323 93.5578 137.997 140.508 95.0153 26.1036 -24.8929 -48.9237 -52.6999 -46.1914 -38.0533 -30.045 -17.2431 2.84276 24.8836 38.1458 36.2885 22.0897 2.29748 -6.26529 -15.2366 -47.7486 -70.0019 -69.7382 -61.6472 -59.014 -64.1518 -69.4229 -68.9484 -64.3603 -61.0811 -63.0791 -70.3988 -77.4338 -60.8929 -61.4221 -81.7499 -93.2922 -115.701 -137.418 -152.832 -165.111 -174.765 -180.267 -167.78 -117.54 23.4003 20.8244 21.7694 20.7937 13.562 2.91489 -5.92887 -12.7466 -16.357 -15.8699 -2.93615 8.0287 3.31047 -13.0582 -25.0858 -28.2008 -32.371 -38.4593 -43.4143 -45.4094 -43.5184 -40.3002 -38.9026 -33.0876 -18.6586 4.48695 47.5572 79.8103 48.0401 -16.8784 -52.7334 -55.4533 -53.4946 -50.4765 -51.2938 -59.0843 -69.0007 -76.1702 -77.4769 -73.425 -59.5971 -23.2502 35.9062 109.388 170.858 182.373 146.476 93.1932 33.1026 -16.4187 -44.1172 -52.4121 -48.2593 -38.8629 -29.6038 -16.3635 7.85066 36.5211 52.2463 46.4424 24.7733 -3.9743 -23.2297 -36.405 -58.1657 -72.5052 -73.2276 -68.418 -66.3204 -70.0996 -73.8573 -72.4037 -66.6837 -60.6653 -56.898 -57.104 -60.5052 -63.597 -63.7528 -69.6891 -67.2001 -63.2434 -71.7195 -53.0938 -27.5962 -12.636 -23.5965 -52.2368 -74.4415 -86.5875 -97.5245 -109.873 -127.008 -146.978 -160.81 -164.065 -139.072 -80.0027 -27.3282 14.7231 8.76507 8.669 9.6951 7.14842 0.459199 -9.58112 -15.7031 -12.1252 -6.49043 2.88772 8.44912 -9.32992 -33.5592 -41.9623 -39.6132 -37.545 -41.6906 -47.8894 -52.269 -53.5169 -50.7494 -46.093 -39.8062 -26.9111 -0.475161 51.9956 77.7954 21.37 -37.1493 -49.906 -42.807 -38.4646 -33.3876 -38.4599 -58.7537 -74.4496 -80.7145 -79.6577 -69.9462 -42.6646 10.9903 83.674 167.526 204.489 172.1 120.94 80.3548 39.145 -3.88047 -33.9401 -49.1513 -49.6386 -40.8603 -30.293 -16.1089 10.2438 41.9737 56.2665 45.719 19.9304 -12.8107 -37.6443 -51.4125 -62.2877 -69.0216 -71.9418 -70.6583 -69.5488 -72.7809 -77.3471 -77.7544 -75.1838 -69.5764 -62.0437 -58.1794 -55.9381 -57.9817 -68.6159 -80.3299 -81.5631 -73.883 -65.9099 -56.9133 -51.5385 -53.0802 -61.6154 -56.3287 -33.2028 2.70826 25.8349 17.1298 -12.9039 -40.4837 -54.216 -59.9297 -69.3147 -92.1526 -120.493 -135.716 -127.74 -86.4729 -22.4315 13.1353 10.7269 7.66468 -1.71433 -7.28985 -9.43745 -10.7706 -16.6761 -27.669 -32.537 -23.7259 -9.15002 -3.75014 -10.4204 -28.618 -42.1617 -43.7337 -43.782 -44.5471 -48.3831 -53.0478 -55.5495 -56.4183 -55.1522 -50.741 -42.0506 -24.4493 10.5326 62.8017 66.5728 0.0425005 -33.4434 -20.4533 -4.26085 -4.24988 -11.4748 -28.3816 -58.4047 -77.147 -83.03 -79.9526 -63.2282 -15.0251 56.1211 133.732 189.831 182.404 138.379 95.2622 63.0709 34.4068 3.66653 -22.4504 -41.3756 -45.8716 -38.0999 -26.0724 -9.15617 15.7236 41.9544 50.6104 35.4135 8.06348 -19.2176 -39.4131 -51.1632 -59.1672 -67.1356 -71.0478 -68.8574 -69.3653 -73.0331 -78.6987 -82.7121 -86.0872 -85.3171 -79.0948 -74.942 -72.7893 -72.6864 -74.9278 -73.8182 -62.5981 -49.4352 -40.9065 -34.8964 -29.8366 -22.4627 -18.2869 -6.22755 20.6955 57.1153 74.8685 59.8009 24.6247 -5.0544 -19.8347 -29.7166 -47.1504 -77.0776 -105.796 -113.035 -92.5405 -46.1142 11.8876 41.9647 44.7191 19.1905 -1.12548 -12.9923 -21.4846 -29.2309 -31.6261 -33.9962 -39.6835 -42.5403 -39.2054 -28.4474 -21.4982 -25.7332 -35.4484 -44.6867 -47.0897 -47.2445 -48.1316 -50.1521 -52.6135 -53.5075 -52.4565 -50.6818 -46.2669 -32.0516 -2.3543 35.6798 59.2328 37.9135 -3.27249 -7.99703 17.0009 28.5931 13.0842 -16.3606 -43.4071 -66.4542 -80.3361 -82.0188 -70.5932 -29.8726 48.6713 116.351 154.004 150.262 123.866 97.8219 65.6486 35.0434 16.6711 1.65135 -14.4291 -31.868 -37.405 -28.2228 -12.773 3.75166 23.9146 39.4603 38.5996 22.7444 2.28152 -19.1446 -38.7528 -53.075 -63.1398 -69.9154 -71.1205 -65.3951 -63.1103 -66.678 -73.6228 -84.5226 -94.8659 -100.865 -98.3847 -96.3284 -95.9873 -93.2879 -86.0943 -69.9515 -41.5748 -10.7849 9.45412 19.2959 27.9637 37.2743 44.0915 56.1022 74.9239 93.09 94.2509 71.5095 34.7249 3.70617 -17.1221 -37.1608 -64.5222 -96.8034 -120.054 -121.817 -104.843 -73.0299 -29.0625 5.20596 -3.75472 68.9988 52.3822 17.2101 -10.5371 -25.1989 -33.7959 -42.5315 -44.727 -43.5811 -44.9683 -46.2647 -46.0672 -43.5394 -42.593 -43.9889 -46.0993 -46.6304 -45.1317 -42.9991 -43.1309 -45.9854 -49.6282 -50.3672 -45.2397 -37.7457 -28.7686 -5.86718 30.4426 54.1723 45.9609 25.535 17.5396 28.5005 43.7255 38.7945 5.53686 -37.4622 -64.1713 -77.7806 -83.2235 -76.2704 -42.6896 41.8028 130.115 150.284 113.512 69.0514 44.041 28.8177 10.111 -1.88918 -4.91692 -8.00984 -10.6326 -20.5607 -24.4305 -15.8289 1.19389 13.9574 27.5764 32.4334 25.246 11.2278 -4.53299 -23.0158 -43.357 -58.3793 -65.774 -69.0467 -67.975 -60.0959 -55.4343 -59.3689 -70.8297 -85.6944 -98.6417 -107.691 -110.72 -113.676 -114.164 -107.616 -95.4798 -73.0065 -34.5258 11.0205 45.2389 64.5692 81.9788 103.12 115.702 111.76 98.9337 86.557 69.2119 41.0794 4.42608 -30.9607 -60.3759 -87.001 -114.443 -139.072 -155.406 -162.9 -163.49 -155.548 -135.076 -109.683 -97.5565 -95.6391 13.4077 28.7683 9.04464 -10.4024 -26.9278 -35.8717 -41.0253 -42.9008 -44.5722 -45.944 -46.1524 -45.8695 -45.9793 -46.9605 -47.3232 -46.6531 -41.3549 -38.4488 -36.3507 -37.4182 -41.3318 -43.9804 -41.2265 -33.0274 -24.633 -4.05069 33.8985 61.1459 49.9366 22.3114 16.5197 25.6382 36.9447 40.3052 21.4803 -19.1978 -57.4266 -77.2446 -84.2599 -79.3861 -54.1963 13.8639 112.581 153.347 111.491 47.1157 7.15728 -13.6068 -24.42 -29.6169 -27.2243 -23.3459 -17.8893 -8.30347 -8.39656 -12.8888 -8.74419 4.73707 14.7271 23.5927 24.0669 13.2586 0.187179 -12.2231 -27.538 -45.0746 -56.7048 -60.3753 -61.1061 -61.4574 -57.8183 -53.7445 -57.3138 -69.863 -84.3616 -97.1258 -107.018 -114.022 -122.324 -124.997 -118.893 -108.976 -92.0231 -57.1267 -6.59416 40.3785 73.7957 103.624 137.171 150.524 119.714 67.6751 27.0508 2.86806 -22.5086 -56.3357 -92.3704 -122.987 -147.689 -167.25 -179.953 -189.449 -200.633 -212.62 -220.176 -220.106 -212.642 -194.857 -156.502 25.2176 25.9135 17.436 11.1413 12.714 7.23145 -0.198506 -7.87373 -18.8829 -26.9206 -32.785 -36.3289 -37.6045 -41.5831 -43.0623 -42.3319 -41.0281 -42.9536 -42.7582 -42.3836 -37.1852 -33.7557 -29.4092 -30.5395 -35.0705 -33.4883 -27.0082 -19.6642 -9.23688 28.6518 74.6067 84.1487 47.3667 11.5446 7.59112 15.8692 21.2772 13.2598 -12.8941 -44.307 -68.8028 -80.5942 -80.4418 -65.1102 -24.7322 53.2061 116.347 100.476 45.0641 0.543179 -25.0606 -37.0174 -41.1394 -41.1894 -38.3404 -33.6059 -22.7371 -8.67243 -2.02959 -5.1936 -7.02089 -2.13796 4.80971 13.39 14.3845 4.69245 -5.63353 -16.1702 -29.956 -42.4374 -48.0726 -50.633 -55.0428 -59.9625 -59.2208 -56.266 -60.0125 -71.9779 -83.3414 -93.3995 -101.354 -110.498 -122.577 -130.97 -131.985 -129.347 -123.424 -102.592 -59.538 -6.66239 40.0394 77.6539 107.382 108.379 64.8949 -0.157849 -45.4498 -64.1107 -83.2812 -112.82 -144.84 -171.823 -190.365 -202.117 -208.137 -212.633 -221.043 -235.697 -249.484 -256.174 -258.963 -249.842 25.2298 30.7387 11.111 -0.397069 -1.12861 0.285106 -2.06214 -8.74478 -12.6418 -11.6783 -12.9029 -19.4529 -27.3297 -31.3061 -32.9005 -29.598 -34.701 -38.061 -36.9955 -35.1633 -36.1634 -36.4924 -35.9754 -31.8968 -26.9583 -24.7889 -23.8855 -21.7333 -18.2159 -13.1466 -5.11485 13.4978 54.2102 84.2471 75.0509 37.9546 9.66128 3.9704 5.33848 2.93436 -10.3563 -30.9821 -50.4707 -66.893 -75.3874 -70.8909 -50.9482 -13.4851 40.3233 65.2212 41.1852 5.28744 -21.946 -37.2703 -40.9205 -39.692 -38.8109 -39.1809 -35.7297 -24.8944 -12.6138 -7.5592 -8.29459 -10.7012 -10.2795 -4.28006 3.41993 1.78931 -5.09861 -11.0778 -20.1006 -34.2936 -42.1981 -42.8637 -45.1963 -52.2201 -60.3472 -61.6913 -60.3178 -64.9136 -75.0974 -84.6836 -93.5687 -100.02 -108.34 -119.218 -131.373 -141.276 -146.352 -148.193 -140.912 -115.006 -70.9438 -24.1846 8.51619 23.3673 14.222 -20.7079 -63.6327 -92.1414 -104.276 -119.677 -144.021 -172.146 -200.839 -219.008 -227.061 -229.834 -230.545 -232.908 -251.796 -277.633 -287.318 -291.419 -294.867 3.7983 425.903 749.265 -0.328053 42.4113 40.3239 -4.16792 -30.2581 -25.8758 -15.9971 -18.3877 -25.4338 -25.9007 -21.4944 -17.9639 -21.435 -26.3882 -27.3956 -27.2368 -24.3535 -23.9371 -24.7504 -26.1953 -26.8079 -24.5591 -22.7853 -22.0714 -24.4407 -23.2857 -20.464 -11.637 -4.92778 -3.97521 0.0914384 11.497 30.5231 51.8313 54.7644 37.9279 16.7347 5.69008 7.50561 7.88301 1.72696 -10.283 -26.1943 -43.0816 -56.4488 -65.8338 -66.4177 -51.4751 -22.1265 11.7547 24.609 8.92675 -15.8912 -32.5214 -38.8526 -36.7042 -31.9569 -32.773 -37.32 -37.0285 -29.5024 -19.9876 -19.0012 -22.3647 -24.4722 -23.5149 -17.1182 -14.434 -16.3313 -18.0029 -21.024 -32.5094 -44.836 -45.6258 -42.2463 -44.6834 -52.3859 -61.8424 -65.2453 -65.4219 -69.14 -77.2698 -89.394 -100.081 -106.35 -111.216 -117.048 -127.953 -142.982 -155.173 -159.954 -157.537 -144.723 -120.17 -92.3499 -72.153 -65.6175 -79.9309 -102.418 -118.907 -126.779 -129.234 -138.616 -156.199 -180.432 -213.024 -239.547 -252.737 -255.498 -255.336 -257.837 -280.637 -312.72 -327.52 -337.143 -356.856 -300.075 22.8972 588.56 974.709 1060.38 1021.48 935.459 784.516 541.929 11.3338 62.5234 54.0533 -8.97151 -45.3849 -41.5118 -28.3193 -28.3795 -29.6082 -26.0548 -23.8916 -18.74 -14.7815 -17.2798 -19.89 -21.326 -22.2033 -21.179 -20.7694 -21.4668 -18.6349 -10.8466 -3.81996 -5.54431 -19.4852 -25.4283 -24.4184 -12.6848 1.59362 4.65097 14.7564 27.5477 33.7767 32.2335 23.4131 14.3387 9.68743 10.9274 17.5729 19.1222 11.6081 -3.06111 -22.2033 -40.9482 -52.4612 -58.8939 -61.7047 -52.82 -28.1322 -5.35772 2.67774 -8.4334 -27.2985 -35.7382 -35.5195 -29.3937 -24.7389 -29.563 -38.7372 -44.457 -43.0587 -42.4412 -43.8928 -42.9609 -37.895 -34.7881 -34.326 -37.1145 -43.9778 -53.7167 -59.4943 -58.7577 -57.393 -60.4561 -66.7866 -72.8241 -74.8088 -74.257 -75.6945 -84.3647 -98.8384 -111.884 -118.746 -119.997 -120.401 -125.535 -138.844 -153.951 -159.536 -158.9 -152.662 -142.521 -132.039 -119.035 -114.369 -134.393 -155.731 -160.075 -154.337 -148.22 -151.821 -163.794 -186.731 -222.812 -260.987 -283.541 -289.523 -296.548 -308.399 -329.518 -348.005 -359.731 -373.147 -387.018 -278.433 150.105 766.331 1097.39 1139.27 1065.56 942.129 757.616 498.916 232.066 51.3469 57.5391 -21.86 14.9113 75.3349 48.022 -19.0784 -50.7382 -49.6533 -36.6383 -31.0487 -33.394 -27.8355 -23.0171 -17.4896 -12.124 -7.22026 -8.37402 -13.2895 -17.8547 -20.3455 -20.7846 -19.3414 -15.2219 -9.7229 0.775251 3.41294 -7.93821 -13.359 -15.5552 -10.7065 5.32174 14.8282 28.2523 34.7893 31.6515 22.5257 14.6783 14.732 18.9611 23.2031 25.1369 22.6428 10.6642 -10.2228 -31.8686 -46.5836 -55.0796 -60.7827 -54.9187 -38.9841 -23.2248 -17.3017 -14.9881 -16.9726 -27.14 -34.1345 -31.554 -24.1032 -24.133 -34.554 -47.9178 -58.5063 -65.1816 -69.2345 -72.137 -73.288 -70.6502 -66.4146 -62.9955 -59.7848 -56.4715 -59.1704 -66.4923 -71.7866 -75.121 -78.5691 -82.7335 -88.1749 -91.2028 -93.0689 -93.1091 -89.8472 -90.231 -99.6421 -112.601 -125.585 -134.025 -136.103 -134.236 -132.629 -140.036 -151.995 -156.491 -157.206 -154.772 -150.123 -144.96 -133.332 -128.534 -151.324 -173.072 -175.131 -165.331 -159.98 -163.034 -173.061 -195.538 -233.199 -279.582 -312.683 -328.549 -344.668 -360.132 -374.081 -376.454 -371.797 -366.589 -316.389 -72.6803 447.183 955.146 1144.78 1098.54 925.346 713.453 493.636 266.894 84.4765 -7.66863 7.69027 38.7506 -5.21532 -16.2899 25.5568 67.7225 16.6866 -35.4956 -53.0246 -54.1747 -42.5561 -34.2894 -35.9221 -30.0442 -26.7134 -18.3925 -11.1749 -4.20689 0.900998 -3.03795 -8.97986 -12.4153 -12.9628 -13.4614 -14.6934 -17.9407 -10.969 -0.289346 -4.06691 -8.15057 -6.7298 -1.87648 12.2991 25.9154 34.1951 33.5058 30.3921 25.2773 21.7258 26.3092 32.1885 32.0737 25.5165 15.3889 -4.40987 -29.9544 -47.7898 -55.3168 -58.7277 -59.5899 -46.3494 -29.4289 -27.2944 -32.0614 -29.0843 -25.2779 -25.5594 -28.5685 -27.8937 -26.9878 -36.2528 -52.5585 -67.3974 -79.4531 -89.4192 -98.5236 -103.431 -102.014 -97.604 -94.0253 -90.9077 -81.956 -72.6426 -72.5745 -78.2061 -82.8116 -89.7074 -98.5574 -104.532 -110.783 -114.261 -115.209 -112.377 -106.068 -107.23 -116.205 -127.01 -138.731 -147.04 -151.635 -151.838 -147.621 -147.399 -154.517 -158.344 -160.009 -160.556 -158.425 -155.453 -147.617 -142.494 -157.721 -172.969 -171.092 -166.522 -168.928 -175.487 -186.656 -206.566 -241.144 -286.273 -323.167 -346.814 -365.522 -379.119 -390.858 -385.923 -363.741 -311.207 -141.245 254.819 767.172 1077.92 1117.41 942.979 619.116 348.145 179.775 53.7493 -26.7844 -53.009 -6.18123 43.0424 3.52019 -7.97146 -7.87593 26.1413 33.509 -18.7433 -41.9837 -50.1334 -54.8281 -47.6476 -41.8208 -38.2136 -32.2136 -25.1266 -16.9798 -9.01234 -3.23266 1.16482 -0.466917 -6.5789 -12.434 -13.1883 -14.5065 -17.9176 -18.3464 -11.0053 -2.99782 -2.61542 -5.77289 -1.99794 5.65675 16.1301 26.0978 28.5562 24.5996 23.578 22.735 21.375 26.587 30.2223 26.5043 15.7059 -1.4263 -25.2874 -46.0436 -57.3143 -62.2698 -62.1055 -51.5918 -27.974 -23.1899 -33.7107 -36.6272 -29.1111 -29.1707 -30.6577 -27.8421 -22.0241 -25.9665 -47.5111 -78.7996 -95.8988 -106.91 -115.701 -122.392 -124.958 -122.315 -118.531 -114.148 -107.849 -96.3744 -85.7772 -81.8553 -82.8188 -87.0315 -99.4614 -114.443 -121.621 -125.204 -126.827 -127.329 -122.602 -117.536 -126.029 -136.463 -146.472 -152.969 -158.729 -161.179 -158.74 -155.622 -159.718 -164.949 -165.13 -163.796 -160.123 -162.913 -163.197 -164.44 -173.224 -180.969 -178.17 -180.419 -189.785 -199.08 -209.944 -229.025 -258.227 -288.647 -310.732 -321.223 -329.705 -345.851 -369.722 -376.6 -344.464 -224.888 63.2413 509.261 906.93 1063.14 983.87 679.058 293.235 90.614 19.7179 -28.5706 -60.8221 -56.4837 14.8456 76.0697 -14.9019 -13.7568 0.126604 -13.7693 -46.5183 -49.7884 -51.9281 -57.356 -48.7654 -43.3901 -39.1797 -31.6059 -25.8605 -14.8691 -9.31568 -9.01071 -8.22248 -6.70489 -11.3003 -21.1387 -21.8753 -20.5192 -22.0862 -19.538 -11.0647 -2.88023 -0.985912 -1.82957 4.48351 15.2784 23.6464 26.8764 25.514 22.145 18.8183 14.9854 12.9743 16.3163 17.0531 10.7964 -1.85451 -19.4353 -40.1897 -54.7535 -61.5985 -64.7739 -61.549 -42.0412 -19.0243 -24.4057 -36.7255 -34.2899 -26.0041 -27.6708 -32.5935 -21.4799 -67.2318 -88.6822 -100.079 -111.814 -127.29 -142.908 -142.786 -134.548 -122.63 -109.529 -99.5806 -90.655 -84.2993 -82.0308 -87.3788 -103.163 -120.016 -126.968 -126.157 -123.542 -122.59 -119.02 -113.725 -116.546 -124.244 -135.022 -144.701 -150.395 -156.088 -160.92 -160.52 -158.828 -162.426 -167.806 -165.344 -162.013 -161.65 -164.685 -171.12 -180.511 -190 -198.771 -200.018 -209.235 -223.243 -236.946 -250.294 -269.232 -286.831 -290.123 -271.614 -235.272 -218.342 -246.862 -291.761 -303.38 -260.472 -107.025 201.649 548.017 779.594 826.181 663.752 332.001 51.0139 -38.0484 -50.911 -71.4725 -87.4818 -63.3178 27.581 92.6652 -18.2952 -20.7041 -24.3802 -40.2632 -54.6602 -55.4083 -52.5499 -53.0357 -48.1117 -43.8995 -39.2313 -28.1364 -26.0103 -15.2517 -10.9203 -13.9426 -15.4115 -16.0567 -16.3013 -25.0079 -27.0365 -25.8522 -26.0942 -23.0658 -15.1435 -4.89319 -2.4919 -0.242765 8.65207 20.3092 25.5921 25.0137 23.8146 19.1619 12.1103 8.41572 10.6176 9.72426 5.97537 2.37656 -8.01543 -25.1027 -42.6386 -55.7942 -61.2011 -63.6324 -59.5261 -42.4914 -28.154 -33.9655 -39.4312 -33.6456 -25.8627 -27.54 -28.506 -104.154 -115.157 -105.428 -92.3203 -79.8983 -78.7953 -83.1062 -82.8285 -83.1219 -90.8528 -104.64 -116.763 -121.826 -119.191 -112.984 -109.018 -105.759 -100.691 -100.682 -108.71 -120.795 -132.756 -141.326 -148.221 -153.203 -154.547 -155.697 -160.019 -163.192 -159.441 -158.929 -161.288 -165.563 -174.299 -184.772 -199.355 -216.002 -226.47 -241.272 -261.191 -279.317 -295.353 -311.275 -312.684 -279.886 -203.36 -105.651 -48.3587 -63.9755 -90.1679 -48.7487 20.3034 128.824 294.557 429.864 463.351 404.108 235.389 60.027 -4.89135 4.02347 -4.54965 -31.0696 -34.0855 11.0191 101.315 138.243 -16.2686 -24.2562 -38.4505 -50.7445 -55.9352 -51.9341 -47.7432 -48.4185 -47.0555 -39.024 -29.4673 -25.0497 -16.9352 -14.5666 -16.32 -17.3066 -20.3768 -21.5327 -22.057 -22.8628 -24.9349 -24.5441 -20.9635 -17.0001 -8.39172 -1.10511 4.22429 13.1426 22.0948 24.3646 21.8376 17.1672 8.84945 2.34163 3.84663 10.6277 7.43215 4.66273 4.40799 -8.58001 -29.3019 -43.1827 -49.8877 -55.8411 -59.661 -57.959 -49.2183 -43.2069 -45.6918 -44.6029 -35.1325 -25.8114 -27.7098 -25.144 -88.6906 -92.2499 -98.157 -99.544 -94.1713 -98.8112 -110.927 -108.651 -101.714 -96.4006 -88.9716 -86.6514 -94.0727 -106.588 -120.671 -131.104 -136.741 -140.661 -142.407 -145.603 -150.654 -152.932 -157.624 -163.716 -169.779 -177.137 -185.172 -201.799 -223.615 -239.461 -259.797 -286.194 -307.978 -325.807 -339.761 -329.042 -261.617 -131.454 24.2341 156.044 241.281 323.787 416.228 425.95 375.15 332.524 320.176 289.101 216.356 106.712 88.6862 183.183 254.529 227.011 171.438 163.938 194.135 233.734 216.259 -17.9165 -31.6041 -45.5064 -53.6321 -54.1815 -53.4581 -51.1931 -43.8192 -34.9094 -29.5583 -29.9542 -20.9834 -18.2161 -19.6746 -21.2392 -24.6232 -28.9458 -26.7849 -22.5974 -22.2657 -24.5129 -22.5091 -18.4068 -11.0138 0.58617 8.90875 14.2942 19.6858 20.1991 15.6802 4.90575 -3.37879 -6.21302 0.168102 7.72124 5.18525 4.7383 1.8035 -18.6446 -36.274 -50.1118 -49.8969 -50.5995 -55.2206 -55.9116 -52.508 -51.3587 -54.113 -50.9038 -37.2752 -24.7873 -25.4769 -22.328 -54.8174 -100.548 -108.467 -101.353 -67.4175 -63.5635 -73.035 -66.2073 -63.8397 -67.7114 -80.4643 -90.951 -100.917 -114.422 -124.09