# vtk DataFile Version 2.0
3D Data
ASCII
DATASET UNSTRUCTURED_GRID
POINTS 7482 double 
1.317e+06 2.13836e+06 -10000
1.327e+06 2.13836e+06 -10000
1.337e+06 2.13836e+06 -10000
1.347e+06 2.13836e+06 -10000
1.357e+06 2.13836e+06 -10000
1.487e+06 2.13836e+06 -10000
1.297e+06 2.14836e+06 -10000
1.307e+06 2.14836e+06 -10000
1.317e+06 2.14836e+06 -10000
1.327e+06 2.14836e+06 -10000
1.337e+06 2.14836e+06 -10000
1.347e+06 2.14836e+06 -10000
1.357e+06 2.14836e+06 -10000
1.367e+06 2.14836e+06 -10000
1.467e+06 2.14836e+06 -10000
1.477e+06 2.14836e+06 -10000
1.487e+06 2.14836e+06 -10000
1.497e+06 2.14836e+06 -10000
1.547e+06 2.14836e+06 -10000
1.557e+06 2.14836e+06 -10000
1.567e+06 2.14836e+06 -10000
1.587e+06 2.14836e+06 -10000
1.597e+06 2.14836e+06 -10000
1.287e+06 2.15836e+06 -10000
1.297e+06 2.15836e+06 -10000
1.307e+06 2.15836e+06 -10000
1.317e+06 2.15836e+06 -10000
1.327e+06 2.15836e+06 -10000
1.337e+06 2.15836e+06 -10000
1.347e+06 2.15836e+06 -10000
1.357e+06 2.15836e+06 -10000
1.367e+06 2.15836e+06 -10000
1.377e+06 2.15836e+06 -10000
1.457e+06 2.15836e+06 -10000
1.467e+06 2.15836e+06 -10000
1.477e+06 2.15836e+06 -10000
1.487e+06 2.15836e+06 -10000
1.497e+06 2.15836e+06 -10000
1.507e+06 2.15836e+06 -10000
1.527e+06 2.15836e+06 -10000
1.537e+06 2.15836e+06 -10000
1.547e+06 2.15836e+06 -10000
1.557e+06 2.15836e+06 -10000
1.567e+06 2.15836e+06 -10000
1.577e+06 2.15836e+06 -10000
1.587e+06 2.15836e+06 -10000
1.597e+06 2.15836e+06 -10000
1.607e+06 2.15836e+06 -10000
1.617e+06 2.15836e+06 -10000
1.627e+06 2.15836e+06 -10000
1.967e+06 2.15836e+06 -10000
1.277e+06 2.16836e+06 -10000
1.287e+06 2.16836e+06 -10000
1.297e+06 2.16836e+06 -10000
1.307e+06 2.16836e+06 -10000
1.317e+06 2.16836e+06 -10000
1.327e+06 2.16836e+06 -10000
1.337e+06 2.16836e+06 -10000
1.347e+06 2.16836e+06 -10000
1.357e+06 2.16836e+06 -10000
1.367e+06 2.16836e+06 -10000
1.377e+06 2.16836e+06 -10000
1.427e+06 2.16836e+06 -10000
1.437e+06 2.16836e+06 -10000
1.447e+06 2.16836e+06 -10000
1.457e+06 2.16836e+06 -10000
1.467e+06 2.16836e+06 -10000
1.477e+06 2.16836e+06 -10000
1.487e+06 2.16836e+06 -10000
1.497e+06 2.16836e+06 -10000
1.507e+06 2.16836e+06 -10000
1.517e+06 2.16836e+06 -10000
1.527e+06 2.16836e+06 -10000
1.537e+06 2.16836e+06 -10000
1.547e+06 2.16836e+06 -10000
1.557e+06 2.16836e+06 -10000
1.567e+06 2.16836e+06 -10000
1.577e+06 2.16836e+06 -10000
1.587e+06 2.16836e+06 -10000
1.597e+06 2.16836e+06 -10000
1.607e+06 2.16836e+06 -10000
1.617e+06 2.16836e+06 -10000
1.627e+06 2.16836e+06 -10000
1.637e+06 2.16836e+06 -10000
1.957e+06 2.16836e+06 -10000
1.967e+06 2.16836e+06 -10000
1.977e+06 2.16836e+06 -10000
1.247e+06 2.17836e+06 -10000
1.257e+06 2.17836e+06 -10000
1.267e+06 2.17836e+06 -10000
1.277e+06 2.17836e+06 -10000
1.287e+06 2.17836e+06 -10000
1.297e+06 2.17836e+06 -10000
1.307e+06 2.17836e+06 -10000
1.317e+06 2.17836e+06 -10000
1.327e+06 2.17836e+06 -10000
1.337e+06 2.17836e+06 -10000
1.347e+06 2.17836e+06 -10000
1.357e+06 2.17836e+06 -10000
1.367e+06 2.17836e+06 -10000
1.377e+06 2.17836e+06 -10000
1.387e+06 2.17836e+06 -10000
1.397e+06 2.17836e+06 -10000
1.407e+06 2.17836e+06 -10000
1.417e+06 2.17836e+06 -10000
1.427e+06 2.17836e+06 -10000
1.437e+06 2.17836e+06 -10000
1.447e+06 2.17836e+06 -10000
1.457e+06 2.17836e+06 -10000
1.467e+06 2.17836e+06 -10000
1.477e+06 2.17836e+06 -10000
1.487e+06 2.17836e+06 -10000
1.497e+06 2.17836e+06 -10000
1.507e+06 2.17836e+06 -10000
1.517e+06 2.17836e+06 -10000
1.527e+06 2.17836e+06 -10000
1.537e+06 2.17836e+06 -10000
1.547e+06 2.17836e+06 -10000
1.557e+06 2.17836e+06 -10000
1.567e+06 2.17836e+06 -10000
1.577e+06 2.17836e+06 -10000
1.587e+06 2.17836e+06 -10000
1.597e+06 2.17836e+06 -10000
1.607e+06 2.17836e+06 -10000
1.617e+06 2.17836e+06 -10000
1.627e+06 2.17836e+06 -10000
1.637e+06 2.17836e+06 -10000
1.647e+06 2.17836e+06 -10000
1.657e+06 2.17836e+06 -10000
1.667e+06 2.17836e+06 -10000
1.727e+06 2.17836e+06 -10000
1.947e+06 2.17836e+06 -10000
1.957e+06 2.17836e+06 -10000
1.967e+06 2.17836e+06 -10000
1.977e+06 2.17836e+06 -10000
1.987e+06 2.17836e+06 -10000
1.007e+06 2.18836e+06 -10000
1.017e+06 2.18836e+06 -10000
1.027e+06 2.18836e+06 -10000
1.037e+06 2.18836e+06 -10000
1.047e+06 2.18836e+06 -10000
1.057e+06 2.18836e+06 -10000
1.097e+06 2.18836e+06 -10000
1.237e+06 2.18836e+06 -10000
1.247e+06 2.18836e+06 -10000
1.257e+06 2.18836e+06 -10000
1.267e+06 2.18836e+06 -10000
1.277e+06 2.18836e+06 -10000
1.287e+06 2.18836e+06 -10000
1.297e+06 2.18836e+06 -10000
1.307e+06 2.18836e+06 -10000
1.317e+06 2.18836e+06 -10000
1.327e+06 2.18836e+06 -10000
1.337e+06 2.18836e+06 -10000
1.347e+06 2.18836e+06 -10000
1.357e+06 2.18836e+06 -10000
1.367e+06 2.18836e+06 -10000
1.377e+06 2.18836e+06 -10000
1.387e+06 2.18836e+06 -10000
1.397e+06 2.18836e+06 -10000
1.407e+06 2.18836e+06 -10000
1.417e+06 2.18836e+06 -10000
1.427e+06 2.18836e+06 -10000
1.437e+06 2.18836e+06 -10000
1.447e+06 2.18836e+06 -10000
1.457e+06 2.18836e+06 -10000
1.467e+06 2.18836e+06 -10000
1.477e+06 2.18836e+06 -10000
1.487e+06 2.18836e+06 -10000
1.497e+06 2.18836e+06 -10000
1.507e+06 2.18836e+06 -10000
1.517e+06 2.18836e+06 -10000
1.527e+06 2.18836e+06 -10000
1.537e+06 2.18836e+06 -10000
1.547e+06 2.18836e+06 -10000
1.557e+06 2.18836e+06 -10000
1.567e+06 2.18836e+06 -10000
1.577e+06 2.18836e+06 -10000
1.587e+06 2.18836e+06 -10000
1.597e+06 2.18836e+06 -10000
1.607e+06 2.18836e+06 -10000
1.617e+06 2.18836e+06 -10000
1.627e+06 2.18836e+06 -10000
1.637e+06 2.18836e+06 -10000
1.647e+06 2.18836e+06 -10000
1.657e+06 2.18836e+06 -10000
1.667e+06 2.18836e+06 -10000
1.677e+06 2.18836e+06 -10000
1.687e+06 2.18836e+06 -10000
1.697e+06 2.18836e+06 -10000
1.717e+06 2.18836e+06 -10000
1.727e+06 2.18836e+06 -10000
1.737e+06 2.18836e+06 -10000
1.937e+06 2.18836e+06 -10000
1.947e+06 2.18836e+06 -10000
1.957e+06 2.18836e+06 -10000
1.967e+06 2.18836e+06 -10000
1.977e+06 2.18836e+06 -10000
1.987e+06 2.18836e+06 -10000
1.997e+06 2.18836e+06 -10000
997000 2.19836e+06 -10000
1.007e+06 2.19836e+06 -10000
1.017e+06 2.19836e+06 -10000
1.027e+06 2.19836e+06 -10000
1.037e+06 2.19836e+06 -10000
1.047e+06 2.19836e+06 -10000
1.057e+06 2.19836e+06 -10000
1.067e+06 2.19836e+06 -10000
1.077e+06 2.19836e+06 -10000
1.087e+06 2.19836e+06 -10000
1.097e+06 2.19836e+06 -10000
1.107e+06 2.19836e+06 -10000
1.117e+06 2.19836e+06 -10000
1.127e+06 2.19836e+06 -10000
1.137e+06 2.19836e+06 -10000
1.147e+06 2.19836e+06 -10000
1.157e+06 2.19836e+06 -10000
1.167e+06 2.19836e+06 -10000
1.177e+06 2.19836e+06 -10000
1.187e+06 2.19836e+06 -10000
1.197e+06 2.19836e+06 -10000
1.207e+06 2.19836e+06 -10000
1.217e+06 2.19836e+06 -10000
1.227e+06 2.19836e+06 -10000
1.237e+06 2.19836e+06 -10000
1.247e+06 2.19836e+06 -10000
1.257e+06 2.19836e+06 -10000
1.267e+06 2.19836e+06 -10000
1.277e+06 2.19836e+06 -10000
1.287e+06 2.19836e+06 -10000
1.297e+06 2.19836e+06 -10000
1.307e+06 2.19836e+06 -10000
1.317e+06 2.19836e+06 -10000
1.327e+06 2.19836e+06 -10000
1.337e+06 2.19836e+06 -10000
1.347e+06 2.19836e+06 -10000
1.357e+06 2.19836e+06 -10000
1.367e+06 2.19836e+06 -10000
1.377e+06 2.19836e+06 -10000
1.387e+06 2.19836e+06 -10000
1.397e+06 2.19836e+06 -10000
1.407e+06 2.19836e+06 -10000
1.417e+06 2.19836e+06 -10000
1.427e+06 2.19836e+06 -10000
1.437e+06 2.19836e+06 -10000
1.447e+06 2.19836e+06 -10000
1.457e+06 2.19836e+06 -10000
1.467e+06 2.19836e+06 -10000
1.477e+06 2.19836e+06 -10000
1.487e+06 2.19836e+06 -10000
1.497e+06 2.19836e+06 -10000
1.507e+06 2.19836e+06 -10000
1.517e+06 2.19836e+06 -10000
1.527e+06 2.19836e+06 -10000
1.537e+06 2.19836e+06 -10000
1.547e+06 2.19836e+06 -10000
1.557e+06 2.19836e+06 -10000
1.567e+06 2.19836e+06 -10000
1.577e+06 2.19836e+06 -10000
1.587e+06 2.19836e+06 -10000
1.597e+06 2.19836e+06 -10000
1.607e+06 2.19836e+06 -10000
1.617e+06 2.19836e+06 -10000
1.627e+06 2.19836e+06 -10000
1.637e+06 2.19836e+06 -10000
1.647e+06 2.19836e+06 -10000
1.657e+06 2.19836e+06 -10000
1.667e+06 2.19836e+06 -10000
1.677e+06 2.19836e+06 -10000
1.687e+06 2.19836e+06 -10000
1.697e+06 2.19836e+06 -10000
1.707e+06 2.19836e+06 -10000
1.717e+06 2.19836e+06 -10000
1.727e+06 2.19836e+06 -10000
1.737e+06 2.19836e+06 -10000
1.747e+06 2.19836e+06 -10000
1.937e+06 2.19836e+06 -10000
1.947e+06 2.19836e+06 -10000
1.957e+06 2.19836e+06 -10000
1.967e+06 2.19836e+06 -10000
1.977e+06 2.19836e+06 -10000
1.987e+06 2.19836e+06 -10000
1.997e+06 2.19836e+06 -10000
2.007e+06 2.19836e+06 -10000
987000 2.20836e+06 -10000
997000 2.20836e+06 -10000
1.007e+06 2.20836e+06 -10000
1.017e+06 2.20836e+06 -10000
1.027e+06 2.20836e+06 -10000
1.037e+06 2.20836e+06 -10000
1.047e+06 2.20836e+06 -10000
1.057e+06 2.20836e+06 -10000
1.067e+06 2.20836e+06 -10000
1.077e+06 2.20836e+06 -10000
1.087e+06 2.20836e+06 -10000
1.097e+06 2.20836e+06 -10000
1.107e+06 2.20836e+06 -10000
1.117e+06 2.20836e+06 -10000
1.127e+06 2.20836e+06 -10000
1.137e+06 2.20836e+06 -10000
1.147e+06 2.20836e+06 -10000
1.157e+06 2.20836e+06 -10000
1.167e+06 2.20836e+06 -10000
1.177e+06 2.20836e+06 -10000
1.187e+06 2.20836e+06 -10000
1.197e+06 2.20836e+06 -10000
1.207e+06 2.20836e+06 -10000
1.217e+06 2.20836e+06 -10000
1.227e+06 2.20836e+06 -10000
1.237e+06 2.20836e+06 -10000
1.247e+06 2.20836e+06 -10000
1.257e+06 2.20836e+06 -10000
1.267e+06 2.20836e+06 -10000
1.277e+06 2.20836e+06 -10000
1.287e+06 2.20836e+06 -10000
1.297e+06 2.20836e+06 -10000
1.307e+06 2.20836e+06 -10000
1.317e+06 2.20836e+06 -10000
1.327e+06 2.20836e+06 -10000
1.337e+06 2.20836e+06 -10000
1.347e+06 2.20836e+06 -10000
1.357e+06 2.20836e+06 -10000
1.367e+06 2.20836e+06 -10000
1.377e+06 2.20836e+06 -10000
1.387e+06 2.20836e+06 -10000
1.397e+06 2.20836e+06 -10000
1.407e+06 2.20836e+06 -10000
1.417e+06 2.20836e+06 -10000
1.427e+06 2.20836e+06 -10000
1.437e+06 2.20836e+06 -10000
1.447e+06 2.20836e+06 -10000
1.457e+06 2.20836e+06 -10000
1.467e+06 2.20836e+06 -10000
1.477e+06 2.20836e+06 -10000
1.487e+06 2.20836e+06 -10000
1.497e+06 2.20836e+06 -10000
1.507e+06 2.20836e+06 -10000
1.517e+06 2.20836e+06 -10000
1.527e+06 2.20836e+06 -10000
1.537e+06 2.20836e+06 -10000
1.547e+06 2.20836e+06 -10000
1.557e+06 2.20836e+06 -10000
[...]
POINT_DATA 7482
SCALARS T double
LOOKUP_TABLE default
12.5106 16.1898 15.2937 11.7938 10.6855 10.9646 2.03459 4.88272 11.27 16.4279 15.884 10.519 7.67127 5.81915 23.2115 13.2396 4.37275 6.19272 -6.66409 -14.9283 -14.6109 8.05471 17.812 11.7831 5.92611 7.79574 11.6904 13.7858 10.7039 4.2944 0.370481 -4.65167 -11.3715 17.1046 23.2893 11.3977 -3.32506 -3.25017 7.21962 14.2771 6.90794 -5.27745 -14.7344 -15.7437 -11.5099 3.92805 30.377 42.2375 30.4928 4.42339 -154.331 35.837 20.3203 9.75565 2.54006 0.227344 -0.256149 -5.76052 -15.1549 -20.8261 -27.142 -35.2126 -9.35273 -2.82951 -7.1902 -0.464375 12.4775 3.12351 -12.0349 -12.9179 -2.43324 9.01407 11.8078 9.93965 1.53075 -6.65635 -5.84547 0.732768 25.2238 67.1543 70.0334 38.9506 -0.00834179 -34.5595 -134.22 -158.361 -183.457 49.9198 65.2873 65.4898 44.8169 19.0365 0.788598 -12.5783 -16.4886 -16.7597 -23.1972 -34.6542 -44.8953 -54.4549 -62.7724 -63.3836 -54.5849 -47.9716 -46.8911 -34.8421 -21.4085 -21.1922 -14.7347 -5.00016 -13.7299 -26.4325 -26.4539 -16.6203 -3.61016 1.62226 4.12227 3.33721 3.41165 9.25262 22.0988 53.1869 77.1894 45.5418 2.2589 -33.1734 -57.5447 -67.6731 -71.1613 -73.031 -91.8767 -119.961 -142.813 -160.94 -179.096 -198.006 20.94 27.818 34.718 31.021 19.8047 13.1258 -25.7582 32.4471 56.8869 76.5908 76.168 40.105 1.91076 -17.4877 -26.8507 -27.2272 -27.9452 -34.341 -48.2859 -63.3555 -75.1429 -82.6676 -84.1907 -79.2434 -71.8368 -58.8549 -33.6356 -7.1917 11.1919 12.7102 -3.42956 -25.1049 -41.5029 -42.108 -33.2084 -23.7338 -17.1646 -9.81387 -1.88499 9.18396 19.4956 26.4777 33.8952 26.7907 -2.92458 -34.1047 -64.4209 -78.2195 -76.1806 -70.1349 -69.1243 -71.9642 -75.6601 -80.0383 -87.9114 -92.9734 -94.3274 -110.003 -137.072 -156.376 -170.236 -179.582 -192.744 -188.168 25.4896 26.723 33.4817 31.9532 25.3942 11.9334 2.04952 -1.35484 -5.85173 -12.1085 -17.6735 -19.3222 -12.9162 3.02065 8.82583 -4.24033 -15.4698 -22.7649 -23.1625 -18.2644 -15.3267 -15.9242 -11.8574 3.32092 29.5813 59.4446 85.2734 79.9953 23.075 -19.9158 -28.9987 -32.9361 -35.0528 -39.8356 -47.4543 -61.7667 -76.3702 -85.2483 -88.7891 -87.4902 -78.9256 -60.592 -32.5537 8.60856 59.396 93.9323 69.659 13.2284 -27.595 -48.2485 -50.1964 -42.3077 -35.002 -28.1457 -18.4157 -3.36834 15.0148 26.8069 24.7833 20.8121 6.83312 -11.1641 -20.9619 -61.128 -80.52 -76.9121 -66.2001 -62.071 -66.5718 -72.1207 -76.3052 -77.6904 -78.3635 -82.718 -87.0967 -90.5659 -119.131 -144.407 -162.939 -174.522 -179.289 -189.005 -184.334 -142.756 30.2555 19.8476 28.5192 30.6778 24.5365 17.3587 4.52331 -8.08503 -11.7281 -11.6388 -9.70034 -6.29495 -3.5582 -3.26292 -3.84197 -5.15831 -16.0791 -26.0275 -32.6281 -33.8798 -28.5148 -23.3761 -28.1922 -25.0223 -8.21408 21.7441 54.7947 87.5509 76.415 2.37001 -38.5752 -40.9351 -45.459 -48.5853 -50.8593 -56.4735 -67.5261 -80.1777 -85.6232 -84.7845 -78.4344 -54.386 -13.5956 29.3297 91.2973 139.658 149.331 95.064 24.9564 -22.1654 -47.1045 -51.6624 -44.8589 -35.8869 -28.7668 -19.0056 0.182701 24.596 38.8341 33.2133 21.0097 -2.15814 -6.92591 -3.49797 -50.2197 -76.6051 -75.4047 -65.6517 -62.3059 -68.9467 -74.2353 -73.1371 -68.4162 -64.675 -66.4826 -71.5976 -78.0188 -83.6551 -78.3178 -91.1073 -101.524 -117.485 -137.63 -154.951 -167.682 -176.045 -186.183 -174.541 -123.219 22.8697 17.8645 23.0778 18.6737 13.09 7.948 -2.36102 -12.2865 -15.0817 -11.9057 -1.98077 8.70085 4.24335 -10.9874 -22.1021 -24 -29.874 -36.6212 -42.3985 -46.476 -44.7733 -37.8309 -41.1475 -34.3603 -17.0327 11.4901 43.2594 82.6242 55.863 -24.4184 -54.7629 -54.4441 -54.4487 -50.2463 -49.7039 -58.8149 -73.0923 -82.0824 -82.5602 -76.1744 -63.1054 -24.2807 35.7674 107.381 176.701 194.61 148.453 89.6377 31.3829 -15.2203 -44.7903 -55.1744 -50.366 -38.6444 -29.7027 -17.9698 7.03887 38.2965 55.6636 45.7194 23.0709 -7.29554 -29.3051 -41.3768 -62.7855 -77.1721 -76.1696 -70.3075 -70.7262 -76.3545 -79.4206 -75.9512 -69.407 -62.9884 -62.7716 -61.7049 -59.7264 -62.8693 -74.0485 -85.2591 -93.7264 -88.6369 -84.2243 -66.1455 -38.6735 -20.9381 -26.5272 -49.108 -72.5534 -88.0049 -99.4353 -111.709 -128.171 -147.759 -164.16 -171.456 -147.262 -83.3311 -35.4022 13.3056 8.41443 9.76931 6.64152 4.48898 -2.66121 -14.4919 -20.046 -16.4006 -5.5688 9.50886 16.5447 -5.40423 -30.7332 -40.5933 -41.0546 -41.9051 -46.6212 -51.3853 -56.4489 -59.2211 -56.2023 -48.3897 -39.6486 -26.7094 -1.40359 44.7028 82.165 21.8899 -44.4093 -49.8637 -41.9314 -39.5788 -31.5721 -36.1941 -59.7491 -77.4851 -84.2956 -83.0871 -71.4898 -44.6628 6.23324 79.9935 172.873 220.119 170.448 113.068 75.2785 38.9894 -1.65475 -37.3925 -55.1326 -55.0562 -43.7595 -31.3992 -16.5414 9.67662 41.6285 55.5912 42.1901 17.0382 -15.036 -42.7529 -57.9371 -66.7721 -74.4175 -76.489 -74.5198 -75.3918 -79.0469 -81.4826 -80.6667 -81.1382 -74.9775 -66.9835 -63.3174 -58.3712 -58.0414 -71.3839 -82.1984 -86.233 -86.9064 -84.0774 -76.3769 -66.9733 -61.995 -61.7315 -55.4594 -32.0185 3.33163 26.5729 16.0563 -16.3166 -44.4475 -57.5938 -60.8268 -68.724 -90.9326 -121.522 -143.027 -135.234 -93.3201 -24.6415 25.063 16.6871 8.50979 0.601678 -3.63682 -7.56396 -11.7874 -18.5958 -29.4711 -32.4731 -24.7408 -10.4911 -2.27042 -8.4383 -26.5607 -42.2745 -48.7802 -48.7372 -48.3562 -52.0406 -54.3019 -55.7706 -57.6894 -55.3771 -50.8575 -42.6269 -26.8949 7.20519 68.1835 79.1878 -3.77593 -34.1672 -17.3609 -1.79447 -3.62925 -6.95177 -21.933 -61.5684 -81.4702 -86.7335 -84.0339 -66.9612 -21.0067 52.1054 138.252 200.463 180.516 130.472 85.2459 57.5322 35.8391 6.10253 -25.9389 -46.6029 -49.856 -38.354 -24.584 -8.53086 14.6655 42.1621 49.9781 32.621 5.39028 -23.9389 -44.845 -56.4145 -64.8148 -74.5927 -78.8541 -76.2765 -74.5822 -78.7738 -83.8827 -86.9388 -92.1791 -91.735 -84.5809 -80.4916 -79.2709 -79.0964 -80.9008 -79.6598 -68.7842 -56.3088 -47.6261 -39.7585 -31.93 -25.8663 -21.5656 -11.9129 13.0458 51.0737 75.4162 59.1595 21.144 -7.07127 -19.1796 -26.7121 -43.9243 -75.1375 -106.934 -116.006 -92.2202 -44.9345 14.4249 57.2989 49.0257 15.3748 1.92687 -8.84051 -20.4709 -30.3951 -31.4758 -31.3835 -40.4389 -44.6425 -41.0407 -31.5897 -27.0291 -32.9788 -41.792 -48.4804 -50.3789 -48.4874 -47.9324 -51.5925 -54.808 -55.9499 -54.0179 -52.3035 -50.1591 -35.2911 1.07196 36.031 64.1307 37.0086 -7.84266 -6.48426 17.2068 31.5105 16.7164 -16.4796 -44.1038 -69.5987 -83.7277 -84.6553 -73.8358 -38.036 41.235 121.85 158.961 155.637 117.739 108.543 67.4115 30.3552 14.0681 -1.63657 -20.3938 -35.6589 -38.6165 -27.3981 -10.5289 5.85254 22.4329 38.1199 37.4262 18.2306 -4.63227 -27.0228 -47.1647 -60.3027 -68.4342 -75.0629 -77.2732 -72.5703 -67.9554 -71.52 -80.592 -90.2357 -100.918 -106.985 -104.58 -102.3 -101.961 -98.6556 -90.2915 -76.0446 -48.7612 -15.2385 7.73921 16.9472 21.8874 31.1431 40.005 50.9633 69.8693 94.2359 97.7719 70.6734 32.3395 3.1942 -16.9442 -38.2261 -65.9095 -99.1588 -121.838 -123.289 -102.479 -69.5569 -27.4813 9.81777 7.86151 77.0699 49.3031 11.6523 -13.1556 -24.804 -34.0261 -43.2181 -45.1163 -44.7783 -47.11 -48.2968 -47.8886 -45.3824 -43.5392 -45.6765 -48.2225 -48.2497 -45.674 -42.7926 -42.7632 -46.5852 -51.6287 -52.0292 -48.5149 -41.3224 -37.0634 -13.4212 35.3682 60.6343 47.8618 26.0046 21.1369 31.2824 47.4984 45.1433 6.22587 -40.6029 -67.8583 -80.5756 -86.4086 -79.6724 -48.3354 35.4876 137.908 162.265 112.566 67.8599 36.6214 22.2396 5.57199 -7.77612 -12.361 -13.8048 -17.3322 -23.24 -24.485 -15.9851 0.0394537 16.6014 27.9078 30.7765 22.4827 6.36088 -10.2679 -29.3604 -49.8616 -63.8887 -69.0704 -71.8808 -73.3831 -68.0532 -61.0113 -64.0345 -76.5888 -90.7001 -104.488 -114.866 -117.849 -120.373 -120.867 -111.833 -99.4467 -78.9898 -40.8945 8.18196 44.69 58.0952 69.7927 94.894 112.128 113.044 99.5214 87.3343 66.8583 37.316 1.43839 -34.4679 -65.1409 -92.6249 -120.38 -145.188 -158.851 -164.313 -164.771 -156.166 -138.223 -111.471 -93.4671 -104.062 36.1249 26.6057 9.28267 -7.87359 -25.5376 -36.1447 -43.8017 -46.0663 -46.6783 -46.5674 -46.2074 -46.4966 -46.261 -45.2561 -45.9889 -45.735 -42.5546 -37.9012 -35.2362 -36.3464 -40.2079 -43.5611 -42.2462 -37.1866 -25.855 -10.1403 28.5487 61.3016 51.8088 17.956 19.7838 26.6179 38.1904 44.7251 25.0242 -20.5724 -60.3308 -79.905 -87.3351 -85.6168 -63.4791 5.19126 121.278 169.949 110.729 39.5622 1.48898 -16.7263 -27.1549 -32.3299 -34.6471 -31.2038 -21.4657 -13.7535 -11.8239 -11.8889 -7.26166 3.33031 15.8458 23.4882 21.9179 12.1679 -1.03882 -15.1021 -34.3045 -53.8778 -63.9455 -65.3506 -66.9241 -70.2166 -66.1754 -58.3779 -61.3423 -77.8028 -92.368 -104.507 -114.352 -122.483 -128.721 -130.658 -123.031 -112.118 -95.7376 -61.2926 -8.01571 38.8455 64.2611 92.9243 140.074 159.579 127.11 58.5596 15.9026 -4.13666 -28.3284 -61.3238 -96.4557 -127.502 -150.912 -168.394 -184.159 -194.177 -202.67 -215.136 -223.265 -221.94 -213.617 -194.496 -152.689 31.3962 26.3812 22.0163 15.0709 7.77023 -1.96269 -5.65721 -10.477 -24.7904 -34.2719 -37.9357 -40.0278 -41.8356 -42.0647 -41.7972 -41.2493 -40.6675 -39.7757 -40.7205 -40.2988 -36.513 -31.1083 -28.9793 -30.1617 -33.1187 -33.4683 -28.9475 -21.8209 -10.8517 23.8932 83.4068 87.2013 41.5634 10.668 12.2451 14.4736 21.0965 13.3412 -16.2589 -46.0686 -72.0784 -82.9638 -82.3077 -72.6925 -26.3083 60.4516 130.847 95.6325 35.8882 -8.31868 -31.5026 -37.599 -42.0237 -45.7544 -47.4062 -42.1273 -27.379 -11.78 -6.12695 -8.18097 -8.71166 -2.30351 6.73146 12.0058 11.706 5.12871 -6.66465 -21.5943 -37.9543 -50.69 -55.843 -57.8791 -61.7257 -66.047 -64.8352 -60.5637 -65.3393 -78.7494 -90.8724 -101.068 -108.046 -117.359 -127.821 -135.319 -137.505 -134.411 -129.573 -112.579 -65.9561 -9.86086 34.0712 72.4159 113.512 115.237 63.2787 -12.9447 -55.3591 -67.8242 -88.1933 -118.106 -145.938 -173.325 -191.069 -201.716 -211.76 -217.531 -220.585 -235.72 -250.168 -251.402 -254.543 -250.137 33.8034 36.2532 3.45416 1.25537 -0.778646 -5.1877 -8.98846 -13.5121 -18.775 -21.051 -21.9755 -26.9682 -29.6091 -30.9303 -32.9589 -36.1461 -37.1734 -35.9471 -34.0638 -33.1344 -32.5086 -33.3973 -34.4129 -32.4499 -28.5728 -26.1238 -23.0192 -19.7719 -19.2525 -14.9382 -6.07072 8.45862 52.271 88.7345 72.797 36.453 14.3855 3.84138 3.88095 1.75999 -12.5769 -32.9794 -51.6908 -68.8621 -78.3067 -74.3462 -51.5064 -11.3244 37.2878 63.9203 33.4438 -2.41279 -26.2873 -38.4808 -41.4602 -45.5528 -48.9885 -48.1653 -41.8871 -29.2579 -13.7112 -8.00453 -13.4341 -17.6244 -14.2287 -6.86385 -2.38227 -2.77448 -6.18586 -14.7358 -31.2072 -43.2749 -45.9201 -45.9282 -49.7934 -58.6596 -66.4241 -67.5029 -67.047 -73.4222 -83.9859 -92.7945 -100.364 -105.517 -114.032 -126.159 -137.295 -148.338 -152.561 -154.085 -147.96 -123.878 -77.2812 -26.5562 5.50883 17.9944 7.90131 -26.606 -68.9644 -97.895 -106.155 -123.557 -148.854 -174.623 -206.217 -224.382 -231.254 -232.858 -234.331 -232.422 -253.408 -281.479 -286.268 -288.238 -293.01 8.7822 435.697 840.467 6.37603 38.4254 42.1705 -15.7561 -28.7784 -24.05 -23.6632 -22.6579 -23.4883 -24.528 -24.2075 -23.1114 -23.2768 -23.9409 -24.3843 -25.4688 -28.1277 -29.3951 -29.6195 -29.1317 -26.1535 -20.8621 -20.478 -24.5579 -27.3234 -26.9534 -23.0645 -13.1153 -4.28954 -1.89268 1.33432 11.4159 29.4792 58.6549 58.7852 34.7972 13.8286 6.13744 7.63453 7.21582 -0.124886 -12.317 -30.6273 -49.6912 -65.1138 -71.5212 -67.8445 -51.3127 -25.3815 11.1545 21.5335 3.39231 -19.1705 -34.5849 -40.9524 -41.1666 -40.5781 -42.3681 -43.2929 -41.0388 -33.1612 -21.1997 -19.6168 -26.8567 -30.0713 -28.5353 -23.8475 -21.3029 -22.6023 -23.9047 -29.8515 -44.5357 -50.5487 -47.5998 -47.3411 -53.6223 -62.522 -69.5188 -71.8493 -72.3202 -76.1953 -84.5775 -96.1861 -106.651 -111.706 -116.261 -123.029 -132.946 -150.545 -162.983 -166.192 -161.684 -151.608 -126.189 -96.3654 -78.1748 -74.548 -88.1849 -106.663 -122.518 -130.332 -129.723 -141.638 -160.044 -183.22 -216.322 -244.035 -255.012 -255.029 -255.58 -257.122 -282.484 -315.322 -331.867 -334.53 -344.553 -301.983 -13.672 587.426 1093.78 1234.17 1202 1087.55 863.98 580.557 1.68581 62.7895 62.7767 -18.6104 -45.8102 -40.3884 -34.471 -29.507 -27.8108 -25.482 -22.4144 -19.414 -17.334 -16.4906 -16.7646 -18.0603 -20.6725 -22.1596 -22.9627 -23.6768 -19.7595 -6.91852 -2.25591 -7.25047 -16.1571 -20.0682 -18.7402 -12.4741 -2.44977 4.32077 13.9846 29.2703 36.1213 36.1495 26.1653 15.0787 9.5804 11.5261 17.2419 19.9399 10.7141 -6.53469 -27.8806 -47.6842 -59.4393 -65.7527 -69.2288 -58.3833 -29.7746 -7.17158 -6.7927 -16.7405 -29.4992 -36.0196 -38.3994 -35.3721 -33.3775 -36.2402 -42.9571 -49.1426 -49.9236 -51.1408 -50.6696 -48.1137 -44.3942 -41.9853 -41.6456 -43.2568 -51.2749 -60.7691 -63.3211 -62.7504 -64.8036 -69.2449 -74.1887 -78.329 -80.8991 -81.1842 -82.5125 -89.2341 -103.099 -118.017 -126.011 -126.071 -125.16 -130.045 -145.266 -163.25 -165.168 -163.786 -161.23 -146.505 -141.462 -129.495 -118.949 -144.419 -163.75 -169.506 -159.77 -149.571 -156.399 -167.518 -188.73 -225.256 -264.518 -285.625 -288.52 -296.115 -309.235 -330.309 -342.222 -360.559 -374.917 -377.057 -305.781 85.5828 840.38 1340.81 1348.74 1195.89 1041.13 798.604 504.259 242.822 70.8057 102.644 -29.2861 8.53731 77.7655 52.5192 -29.2748 -50.2183 -46.0615 -39.8921 -33.4576 -30.3395 -26.0031 -21.2221 -16.839 -12.965 -10.5918 -10.4154 -12.5661 -16.3654 -18.3588 -18.8376 -19.8304 -17.8505 -8.96817 2.05516 6.91094 -3.04339 -9.99829 -12.7331 -8.59201 2.2536 12.7937 26.991 39.3669 32.3835 23.0126 14.9371 14.9149 20.0259 22.2738 22.765 22.0893 9.25078 -12.9783 -34.6283 -48.4955 -54.1341 -63.5165 -67.7918 -48.5781 -26.7757 -29.3328 -26.2022 -24.3264 -33.1632 -36.4486 -33.6895 -29.4162 -32.2817 -40.8874 -53.9179 -66.2844 -74.2771 -78.7318 -81.1836 -80.5286 -77.271 -73.757 -68.7884 -62.3341 -58.8762 -62.0023 -71.1312 -78.6367 -82.3442 -86.479 -90.8582 -94.4978 -98.4152 -99.8623 -99.1846 -97.4596 -96.9446 -102.131 -115.722 -131.808 -141.716 -142.507 -140.038 -139.46 -145.882 -161.629 -162.592 -162.241 -162.16 -152.719 -149.997 -139.532 -124.764 -162.729 -183.822 -182.461 -170.457 -163.736 -168.443 -176.773 -197.107 -235.956 -285.282 -317.529 -328.03 -343.637 -365.529 -381.838 -379.956 -370.725 -364.446 -315.093 -104.439 434.321 1089.27 1423.7 1344.22 995.031 738.899 502.1 266.688 80.2473 -13.7182 -8.32834 34.5803 -0.469899 -17.2108 26.3149 75.2862 17.1613 -39.111 -51.7346 -48.5497 -42.9611 -38.1997 -32.6241 -27.1413 -22.1211 -16.0034 -9.60077 -5.53603 -5.46371 -9.03288 -14.3356 -17.8499 -18.7123 -19.9639 -19.6405 -16.5429 -10.5914 -3.47109 -3.81383 -5.50411 -5.30688 1.12854 11.8344 25.3545 31.482 33.2597 32.387 25.1634 18.6081 26.1459 34.5907 30.4342 22.6471 12.7632 -5.81013 -29.4978 -48.4375 -55.8757 -57.8402 -63.7132 -55.4317 -31.2089 -27.8458 -38.0819 -27.6629 -27.7899 -34.7774 -36.2693 -31.3187 -32.2333 -43.1893 -58.6133 -74.6962 -87.9659 -98.4217 -106.527 -109.942 -107.641 -104.001 -101.245 -95.9274 -86.9065 -79.4007 -78.5444 -83.9315 -90.8407 -97.8461 -106.003 -113.34 -118.291 -122.029 -122.928 -121.271 -118.295 -116.542 -121.693 -133.568 -145.767 -155.219 -160.845 -160.594 -154.978 -152.956 -162.49 -165.177 -165.608 -167.144 -164.574 -163.054 -155.198 -145.686 -166.008 -178.656 -174.371 -169.131 -173.445 -180.184 -189.037 -208.387 -243.278 -287.878 -326.725 -349.374 -367.579 -384.795 -396.834 -385.35 -359.132 -309.078 -157.282 237.465 834.529 1268.34 1383.09 1092.31 580.878 317.785 162.201 36.7025 -28.5249 -48.8218 -5.51673 61.3426 6.48055 -2.6306 -11.6925 34.4063 45.8619 -19.5802 -37.4545 -52.8616 -52.101 -46.3252 -42.5126 -35.046 -29.3549 -23.1371 -15.4851 -8.75933 -4.20699 -4.34263 -8.5299 -14.7733 -19.6351 -21.0731 -22.1224 -21.3729 -18.7407 -15.1599 -9.54654 -3.83083 -1.54549 0.570706 8.5463 17.6428 28.163 30.8028 23.3396 24.2236 24.5342 22.1966 28.3141 29.9259 25.3927 15.2363 -0.778015 -23.1605 -43.6223 -60.1636 -63.5817 -64.7557 -57.0813 -21.4273 -19.9035 -38.9788 -36.9288 -25.1093 -29.7025 -34.6238 -36.5536 -38.8465 -49.1268 -63.9357 -80.3068 -95.1419 -106.754 -117.049 -126.1 -130.164 -128.317 -124.477 -120.495 -113.981 -103.799 -93.8259 -88.4845 -88.6199 -94.0282 -106.136 -120.018 -129.187 -133.515 -135.094 -135.488 -134.853 -128.852 -132.737 -144.036 -153.933 -161.144 -169.292 -172.614 -166.865 -161.646 -168.784 -173.36 -171.788 -172.193 -172.295 -170.247 -170.34 -172.43 -180.471 -185.836 -181.427 -183.566 -194.009 -203.413 -212.264 -231.46 -259.835 -289.782 -313.083 -325.09 -333.817 -349.357 -369.046 -369.36 -333.272 -220.845 56.066 535.438 1060.94 1404.02 1255.03 696.701 255.298 110.746 40.8877 -10.6098 -40.7527 -47.91 17.1832 102.308 -12.8772 -16.0172 8.28425 -13.4373 -49.2441 -51.7481 -56.0689 -53.5033 -49.7553 -45.8559 -37.0776 -28.7679 -23.0609 -13.6552 -10.1418 -9.08828 -9.10303 -12.1333 -17.6921 -23.2216 -26.0146 -25.672 -23.7635 -20.7379 -15.4581 -8.42881 -1.46666 2.46884 5.30743 16.3423 22.0371 26.5123 24.9634 19.3846 19.0599 14.2786 8.24784 12.5846 16.4474 11.7984 1.68904 -14.2991 -37.6255 -54.0078 -63.0423 -67.5352 -66.9915 -45.7308 -6.11394 -28.4367 -43.2146 -32.7834 -25.6732 -26.3567 -35.1409 -46.2774 -99.3979 -109.398 -118.505 -127.593 -135.682 -139.871 -138.413 -132.033 -122.355 -112.552 -103.608 -95.1121 -88.9713 -87.1156 -93.6749 -110.995 -126.778 -133.75 -134.586 -132.903 -131.694 -130.593 -127.831 -125.885 -129.425 -141.71 -151.887 -156.947 -165.178 -171.08 -168.911 -167.446 -173.829 -178.112 -173.803 -168.848 -168.652 -168.118 -174.843 -186.352 -196.72 -204.805 -206.117 -212.906 -228.112 -241.553 -253.341 -272.877 -290.278 -293.785 -276.338 -242.14 -218.161 -238.69 -285.285 -307.974 -270.777 -125.077 216.359 561.471 824.878 979.245 729.768 308.933 42.6399 -32.7668 -45.6674 -59.8594 -88.3547 -75.2684 21.817 112.423 -14.3034 -21.489 -23.0906 -44.0006 -53.8155 -56.0341 -56.049 -53.3551 -50.2877 -46.9181 -35.458 -19.4918 -23.8029 -13.0997 -9.12454 -12.0121 -12.6522 -14.9846 -20.8301 -27.0538 -29.5522 -27.1485 -24.9438 -22.6473 -17.1776 -9.53933 -1.53345 3.80091 10.7933 24.3906 25.5394 26.2363 25.585 18.4453 13.2955 7.62981 3.05071 5.98596 9.26829 6.99541 -7.33036 -26.5968 -46.2872 -59.3261 -63.3633 -66.0328 -64.4155 -42.056 -23.6827 -42.2801 -44.4324 -35.2293 -25.0584 -23.0388 -41.0839 -139.928 -137.355 -127.795 -111.888 -98.5854 -92.1912 -88.2123 -85.6793 -86.2705 -97.0533 -113.099 -123.034 -125.545 -123.781 -119.638 -115.743 -112.191 -108.765 -108.556 -115.966 -129.129 -141.03 -148.774 -156.173 -160.755 -161.699 -164.12 -169.3 -174.639 -172.185 -165.87 -166.793 -171.031 -179.05 -191.531 -206.691 -223.304 -233.678 -246.584 -266.995 -284.761 -300.547 -317.21 -318.964 -283.56 -207.517 -108.327 -34.5663 -67.0543 -108.027 -71.204 -17.6784 97.2502 310.651 461.826 452.06 379.829 193.951 48.4447 -14.5977 -4.76162 -12.249 -35.7731 -44.5415 1.90651 102.519 152.292 -12.9016 -20.1177 -36.9445 -51.2317 -55.764 -54.9953 -53.4666 -50.2205 -46.6429 -40.8109 -29.7781 -26.2463 -18.5247 -13.3072 -14.2401 -14.8771 -18.4581 -24.3859 -29.0792 -29.5616 -26.388 -24.235 -22.4771 -17.235 -10.4504 -4.08133 3.39942 11.9174 24.0602 26.8128 21.0548 14.6807 9.60757 5.11498 2.9777 4.97386 7.74889 8.75691 2.2435 -13.8221 -36.1278 -52.9269 -58.2703 -61.1157 -63.8871 -63.9661 -55.0039 -50.5248 -53.8036 -49.9302 -42.6876 -31.5767 -31.5878 -45.7936 -90.298 -96.567 -103.981 -107.093 -109.748 -110.745 -109.978 -105.808 -100.193 -94.9323 -90.7952 -91.4429 -101.471 -114.976 -129.308 -141.556 -145.656 -146.498 -149.872 -154.15 -158.476 -163.798 -164.019 -169.878 -176.772 -181.48 -190.764 -208.682 -230.815 -247.192 -267.351 -294.516 -315.047 -332.89 -347.701 -337.009 -263.752 -129.514 30.5268 174.671 216.299 280.258 414.51 473.993 440.034 367.113 323.929 261.574 189.797 84.7862 88.27 190.858 275.805 231.574 164.492 169.986 210.262 244.176 234.092 -16.971 -33.3996 -49.642 -55.6677 -53.7367 -52.836 -49.3105 -45.7153 -41.3076 -33.3653 -25.4427 -18.4131 -17.4321 -18.479 -20.0171 -23.4081 -27.4654 -30.305 -29.9288 -26.6261 -24.3285 -23.2242 -18.0652 -11.1129 -3.02665 4.11975 10.1666 18.1915 17.2999 9.84338 4.43772 -0.287548 -4.97993 -2.36638 5.91411 8.26877 4.9848 -3.26075 -20.8425 -40.3392 -53.1419 -56.3669 -59.6547 -62.1428 -63.7285 -59.4638 -57.5913 -62.5527 -62.6418 -48.9846 -32.547 -29.6336 -43.3979 -85.7489 -101.317 -110.955 -103.384 -95.2473 -99.0662 -96.1681 -91.0189 -86.6248 -84.117 -84.9014 -93.1693 -106.609 -121