# vtk DataFile Version 2.0
3D Data
ASCII
DATASET UNSTRUCTURED_GRID
POINTS 8110 double 
840000 2.15393e+06 -10000
850000 2.15393e+06 -10000
860000 2.15393e+06 -10000
870000 2.15393e+06 -10000
880000 2.15393e+06 -10000
890000 2.15393e+06 -10000
900000 2.15393e+06 -10000
910000 2.15393e+06 -10000
920000 2.15393e+06 -10000
930000 2.15393e+06 -10000
940000 2.15393e+06 -10000
950000 2.15393e+06 -10000
960000 2.15393e+06 -10000
970000 2.15393e+06 -10000
980000 2.15393e+06 -10000
990000 2.15393e+06 -10000
1e+06 2.15393e+06 -10000
1.01e+06 2.15393e+06 -10000
1.02e+06 2.15393e+06 -10000
1.03e+06 2.15393e+06 -10000
1.04e+06 2.15393e+06 -10000
1.05e+06 2.15393e+06 -10000
1.06e+06 2.15393e+06 -10000
1.07e+06 2.15393e+06 -10000
1.08e+06 2.15393e+06 -10000
1.09e+06 2.15393e+06 -10000
1.1e+06 2.15393e+06 -10000
1.11e+06 2.15393e+06 -10000
1.12e+06 2.15393e+06 -10000
1.13e+06 2.15393e+06 -10000
1.14e+06 2.15393e+06 -10000
1.15e+06 2.15393e+06 -10000
1.16e+06 2.15393e+06 -10000
1.17e+06 2.15393e+06 -10000
1.18e+06 2.15393e+06 -10000
1.19e+06 2.15393e+06 -10000
1.2e+06 2.15393e+06 -10000
1.21e+06 2.15393e+06 -10000
1.22e+06 2.15393e+06 -10000
1.23e+06 2.15393e+06 -10000
1.24e+06 2.15393e+06 -10000
1.25e+06 2.15393e+06 -10000
1.26e+06 2.15393e+06 -10000
1.27e+06 2.15393e+06 -10000
1.28e+06 2.15393e+06 -10000
1.29e+06 2.15393e+06 -10000
1.3e+06 2.15393e+06 -10000
1.31e+06 2.15393e+06 -10000
1.32e+06 2.15393e+06 -10000
1.33e+06 2.15393e+06 -10000
1.37e+06 2.15393e+06 -10000
1.38e+06 2.15393e+06 -10000
1.39e+06 2.15393e+06 -10000
1.4e+06 2.15393e+06 -10000
1.41e+06 2.15393e+06 -10000
1.42e+06 2.15393e+06 -10000
1.43e+06 2.15393e+06 -10000
1.44e+06 2.15393e+06 -10000
1.45e+06 2.15393e+06 -10000
1.46e+06 2.15393e+06 -10000
1.47e+06 2.15393e+06 -10000
1.48e+06 2.15393e+06 -10000
1.49e+06 2.15393e+06 -10000
1.5e+06 2.15393e+06 -10000
1.51e+06 2.15393e+06 -10000
1.52e+06 2.15393e+06 -10000
1.53e+06 2.15393e+06 -10000
1.54e+06 2.15393e+06 -10000
1.55e+06 2.15393e+06 -10000
1.56e+06 2.15393e+06 -10000
1.57e+06 2.15393e+06 -10000
1.58e+06 2.15393e+06 -10000
1.59e+06 2.15393e+06 -10000
1.6e+06 2.15393e+06 -10000
1.61e+06 2.15393e+06 -10000
1.62e+06 2.15393e+06 -10000
1.63e+06 2.15393e+06 -10000
1.64e+06 2.15393e+06 -10000
1.65e+06 2.15393e+06 -10000
1.66e+06 2.15393e+06 -10000
1.67e+06 2.15393e+06 -10000
1.68e+06 2.15393e+06 -10000
1.69e+06 2.15393e+06 -10000
1.7e+06 2.15393e+06 -10000
1.71e+06 2.15393e+06 -10000
1.72e+06 2.15393e+06 -10000
1.73e+06 2.15393e+06 -10000
1.74e+06 2.15393e+06 -10000
1.75e+06 2.15393e+06 -10000
1.96e+06 2.15393e+06 -10000
1.97e+06 2.15393e+06 -10000
1.98e+06 2.15393e+06 -10000
1.99e+06 2.15393e+06 -10000
840000 2.16393e+06 -10000
850000 2.16393e+06 -10000
860000 2.16393e+06 -10000
870000 2.16393e+06 -10000
880000 2.16393e+06 -10000
890000 2.16393e+06 -10000
900000 2.16393e+06 -10000
910000 2.16393e+06 -10000
920000 2.16393e+06 -10000
930000 2.16393e+06 -10000
940000 2.16393e+06 -10000
950000 2.16393e+06 -10000
960000 2.16393e+06 -10000
970000 2.16393e+06 -10000
980000 2.16393e+06 -10000
990000 2.16393e+06 -10000
1e+06 2.16393e+06 -10000
1.01e+06 2.16393e+06 -10000
1.02e+06 2.16393e+06 -10000
1.03e+06 2.16393e+06 -10000
1.04e+06 2.16393e+06 -10000
1.05e+06 2.16393e+06 -10000
1.06e+06 2.16393e+06 -10000
1.07e+06 2.16393e+06 -10000
1.08e+06 2.16393e+06 -10000
1.09e+06 2.16393e+06 -10000
1.1e+06 2.16393e+06 -10000
1.11e+06 2.16393e+06 -10000
1.12e+06 2.16393e+06 -10000
1.13e+06 2.16393e+06 -10000
1.14e+06 2.16393e+06 -10000
1.15e+06 2.16393e+06 -10000
1.16e+06 2.16393e+06 -10000
1.17e+06 2.16393e+06 -10000
1.18e+06 2.16393e+06 -10000
1.19e+06 2.16393e+06 -10000
1.2e+06 2.16393e+06 -10000
1.21e+06 2.16393e+06 -10000
1.22e+06 2.16393e+06 -10000
1.23e+06 2.16393e+06 -10000
1.24e+06 2.16393e+06 -10000
1.25e+06 2.16393e+06 -10000
1.26e+06 2.16393e+06 -10000
1.27e+06 2.16393e+06 -10000
1.28e+06 2.16393e+06 -10000
1.29e+06 2.16393e+06 -10000
1.3e+06 2.16393e+06 -10000
1.31e+06 2.16393e+06 -10000
1.32e+06 2.16393e+06 -10000
1.33e+06 2.16393e+06 -10000
1.34e+06 2.16393e+06 -10000
1.35e+06 2.16393e+06 -10000
1.36e+06 2.16393e+06 -10000
1.37e+06 2.16393e+06 -10000
1.38e+06 2.16393e+06 -10000
1.39e+06 2.16393e+06 -10000
1.4e+06 2.16393e+06 -10000
1.41e+06 2.16393e+06 -10000
1.42e+06 2.16393e+06 -10000
1.43e+06 2.16393e+06 -10000
1.44e+06 2.16393e+06 -10000
1.45e+06 2.16393e+06 -10000
1.46e+06 2.16393e+06 -10000
1.47e+06 2.16393e+06 -10000
1.48e+06 2.16393e+06 -10000
1.49e+06 2.16393e+06 -10000
1.5e+06 2.16393e+06 -10000
1.51e+06 2.16393e+06 -10000
1.52e+06 2.16393e+06 -10000
1.53e+06 2.16393e+06 -10000
1.54e+06 2.16393e+06 -10000
1.55e+06 2.16393e+06 -10000
1.56e+06 2.16393e+06 -10000
1.57e+06 2.16393e+06 -10000
1.58e+06 2.16393e+06 -10000
1.59e+06 2.16393e+06 -10000
1.6e+06 2.16393e+06 -10000
1.61e+06 2.16393e+06 -10000
1.62e+06 2.16393e+06 -10000
1.63e+06 2.16393e+06 -10000
1.64e+06 2.16393e+06 -10000
1.65e+06 2.16393e+06 -10000
1.66e+06 2.16393e+06 -10000
1.67e+06 2.16393e+06 -10000
1.68e+06 2.16393e+06 -10000
1.69e+06 2.16393e+06 -10000
1.7e+06 2.16393e+06 -10000
1.71e+06 2.16393e+06 -10000
1.72e+06 2.16393e+06 -10000
1.73e+06 2.16393e+06 -10000
1.74e+06 2.16393e+06 -10000
1.75e+06 2.16393e+06 -10000
1.76e+06 2.16393e+06 -10000
1.95e+06 2.16393e+06 -10000
1.96e+06 2.16393e+06 -10000
1.97e+06 2.16393e+06 -10000
1.98e+06 2.16393e+06 -10000
1.99e+06 2.16393e+06 -10000
2e+06 2.16393e+06 -10000
840000 2.17393e+06 -10000
850000 2.17393e+06 -10000
860000 2.17393e+06 -10000
870000 2.17393e+06 -10000
880000 2.17393e+06 -10000
890000 2.17393e+06 -10000
900000 2.17393e+06 -10000
910000 2.17393e+06 -10000
920000 2.17393e+06 -10000
930000 2.17393e+06 -10000
940000 2.17393e+06 -10000
950000 2.17393e+06 -10000
960000 2.17393e+06 -10000
970000 2.17393e+06 -10000
980000 2.17393e+06 -10000
990000 2.17393e+06 -10000
1e+06 2.17393e+06 -10000
1.01e+06 2.17393e+06 -10000
1.02e+06 2.17393e+06 -10000
1.03e+06 2.17393e+06 -10000
1.04e+06 2.17393e+06 -10000
1.05e+06 2.17393e+06 -10000
1.06e+06 2.17393e+06 -10000
1.07e+06 2.17393e+06 -10000
1.08e+06 2.17393e+06 -10000
1.09e+06 2.17393e+06 -10000
1.1e+06 2.17393e+06 -10000
1.11e+06 2.17393e+06 -10000
1.12e+06 2.17393e+06 -10000
1.13e+06 2.17393e+06 -10000
1.14e+06 2.17393e+06 -10000
1.15e+06 2.17393e+06 -10000
1.16e+06 2.17393e+06 -10000
1.17e+06 2.17393e+06 -10000
1.18e+06 2.17393e+06 -10000
1.19e+06 2.17393e+06 -10000
1.2e+06 2.17393e+06 -10000
1.21e+06 2.17393e+06 -10000
1.22e+06 2.17393e+06 -10000
1.23e+06 2.17393e+06 -10000
1.24e+06 2.17393e+06 -10000
1.25e+06 2.17393e+06 -10000
1.26e+06 2.17393e+06 -10000
1.27e+06 2.17393e+06 -10000
1.28e+06 2.17393e+06 -10000
1.29e+06 2.17393e+06 -10000
1.3e+06 2.17393e+06 -10000
1.31e+06 2.17393e+06 -10000
1.32e+06 2.17393e+06 -10000
1.33e+06 2.17393e+06 -10000
1.34e+06 2.17393e+06 -10000
1.35e+06 2.17393e+06 -10000
1.36e+06 2.17393e+06 -10000
1.37e+06 2.17393e+06 -10000
1.38e+06 2.17393e+06 -10000
1.39e+06 2.17393e+06 -10000
1.4e+06 2.17393e+06 -10000
1.41e+06 2.17393e+06 -10000
1.42e+06 2.17393e+06 -10000
1.43e+06 2.17393e+06 -10000
1.44e+06 2.17393e+06 -10000
1.45e+06 2.17393e+06 -10000
1.46e+06 2.17393e+06 -10000
1.47e+06 2.17393e+06 -10000
1.48e+06 2.17393e+06 -10000
1.49e+06 2.17393e+06 -10000
1.5e+06 2.17393e+06 -10000
1.51e+06 2.17393e+06 -10000
1.52e+06 2.17393e+06 -10000
1.53e+06 2.17393e+06 -10000
1.54e+06 2.17393e+06 -10000
1.55e+06 2.17393e+06 -10000
1.56e+06 2.17393e+06 -10000
1.57e+06 2.17393e+06 -10000
1.58e+06 2.17393e+06 -10000
1.59e+06 2.17393e+06 -10000
1.6e+06 2.17393e+06 -10000
1.61e+06 2.17393e+06 -10000
1.62e+06 2.17393e+06 -10000
1.63e+06 2.17393e+06 -10000
1.64e+06 2.17393e+06 -10000
1.65e+06 2.17393e+06 -10000
1.66e+06 2.17393e+06 -10000
1.67e+06 2.17393e+06 -10000
1.68e+06 2.17393e+06 -10000
1.69e+06 2.17393e+06 -10000
1.7e+06 2.17393e+06 -10000
1.71e+06 2.17393e+06 -10000
1.72e+06 2.17393e+06 -10000
1.73e+06 2.17393e+06 -10000
1.74e+06 2.17393e+06 -10000
1.75e+06 2.17393e+06 -10000
1.76e+06 2.17393e+06 -10000
1.94e+06 2.17393e+06 -10000
1.95e+06 2.17393e+06 -10000
1.96e+06 2.17393e+06 -10000
1.97e+06 2.17393e+06 -10000
1.98e+06 2.17393e+06 -10000
1.99e+06 2.17393e+06 -10000
2e+06 2.17393e+06 -10000
2.01e+06 2.17393e+06 -10000
840000 2.18393e+06 -10000
850000 2.18393e+06 -10000
860000 2.18393e+06 -10000
870000 2.18393e+06 -10000
880000 2.18393e+06 -10000
890000 2.18393e+06 -10000
900000 2.18393e+06 -10000
910000 2.18393e+06 -10000
920000 2.18393e+06 -10000
930000 2.18393e+06 -10000
940000 2.18393e+06 -10000
950000 2.18393e+06 -10000
960000 2.18393e+06 -10000
970000 2.18393e+06 -10000
980000 2.18393e+06 -10000
990000 2.18393e+06 -10000
1e+06 2.18393e+06 -10000
1.01e+06 2.18393e+06 -10000
1.02e+06 2.18393e+06 -10000
1.03e+06 2.18393e+06 -10000
1.04e+06 2.18393e+06 -10000
1.05e+06 2.18393e+06 -10000
1.06e+06 2.18393e+06 -10000
1.07e+06 2.18393e+06 -10000
1.08e+06 2.18393e+06 -10000
1.09e+06 2.18393e+06 -10000
1.1e+06 2.18393e+06 -10000
1.11e+06 2.18393e+06 -10000
1.12e+06 2.18393e+06 -10000
1.13e+06 2.18393e+06 -10000
1.14e+06 2.18393e+06 -10000
1.15e+06 2.18393e+06 -10000
1.16e+06 2.18393e+06 -10000
1.17e+06 2.18393e+06 -10000
1.18e+06 2.18393e+06 -10000
1.19e+06 2.18393e+06 -10000
1.2e+06 2.18393e+06 -10000
1.21e+06 2.18393e+06 -10000
1.22e+06 2.18393e+06 -10000
1.23e+06 2.18393e+06 -10000
1.24e+06 2.18393e+06 -10000
1.25e+06 2.18393e+06 -10000
1.26e+06 2.18393e+06 -10000
1.27e+06 2.18393e+06 -10000
1.28e+06 2.18393e+06 -10000
1.29e+06 2.18393e+06 -10000
1.3e+06 2.18393e+06 -10000
1.31e+06 2.18393e+06 -10000
1.32e+06 2.18393e+06 -10000
1.33e+06 2.18393e+06 -10000
1.34e+06 2.18393e+06 -10000
1.35e+06 2.18393e+06 -10000
1.36e+06 2.18393e+06 -10000
1.37e+06 2.18393e+06 -10000
1.38e+06 2.18393e+06 -10000
1.39e+06 2.18393e+06 -10000
1.4e+06 2.18393e+06 -10000
1.41e+06 2.18393e+06 -10000
1.42e+06 2.18393e+06 -10000
1.43e+06 2.18393e+06 -10000
1.44e+06 2.18393e+06 -10000
1.45e+06 2.18393e+06 -10000
1.46e+06 2.18393e+06 -10000
1.47e+06 2.18393e+06 -10000
1.48e+06 2.18393e+06 -10000
1.49e+06 2.18393e+06 -10000
1.5e+06 2.18393e+06 -10000
[...]
POINT_DATA 8110
SCALARS grav_accel double
LOOKUP_TABLE default
5.70154e-05 9.03158e-05 0.000122077 0.000137808 0.0001345 0.000119951 0.00010265 8.97057e-05 8.26161e-05 7.68091e-05 6.7367e-05 5.10452e-05 3.05773e-05 1.47619e-05 5.10281e-06 -6.6162e-07 -4.57542e-06 -8.75964e-06 -1.67616e-05 -3.44773e-05 -6.18358e-05 -8.51816e-05 -8.85773e-05 -6.06452e-05 -1.13889e-07 7.73012e-05 0.000153741 0.000231914 0.000321897 0.000425967 0.000531133 0.000620225 0.000686312 0.000732631 0.000767212 0.000798973 0.00083321 0.000868727 0.000900457 0.000922855 0.000928771 0.0009124 0.000877487 0.000830983 0.000767275 0.000681229 0.000580668 0.000470351 0.000358621 0.000251147 -8.86151e-05 -0.000159734 -0.000207375 -0.000223835 -0.000219611 -0.000211691 -0.000209412 -0.000214618 -0.00022297 -0.000222185 -0.000202123 -0.00015875 -9.31955e-05 -9.05392e-06 6.60807e-05 0.000101569 9.28918e-05 5.29548e-05 2.02675e-06 -3.4607e-05 -5.21515e-05 -5.5298e-05 -4.70093e-05 -2.90475e-05 1.25352e-07 4.35949e-05 9.48226e-05 0.000132699 0.000147913 0.000152614 0.000163285 0.000185334 0.000213135 0.000236704 0.000249802 0.00025254 0.000247192 0.000233751 0.000209665 -0.000323958 -0.00033782 -0.000332863 -0.000305521 8.06056e-05 0.000125862 0.00016282 0.000175066 0.000163709 0.000140492 0.000116488 9.96635e-05 9.04188e-05 8.3063e-05 7.17245e-05 5.25935e-05 2.86729e-05 1.00368e-05 -8.10019e-07 -5.99287e-06 -7.88267e-06 -8.72057e-06 -1.1043e-05 -1.84829e-05 -3.0892e-05 -3.97628e-05 -3.35794e-05 -1.4411e-06 6.0755e-05 0.000139449 0.000212109 0.000278228 0.000355487 0.000455263 0.000565378 0.000663657 0.000739307 0.000795007 0.000838928 0.000877999 0.000916245 0.000952548 0.000982973 0.00100614 0.00101379 0.000987781 0.000941426 0.000887066 0.000816052 0.000722792 0.000614259 0.000497414 0.000381378 0.000271963 0.000168072 7.11926e-05 -2.22435e-05 -0.000117657 -0.00020691 -0.000265731 -0.000284489 -0.000275459 -0.000260295 -0.000253584 -0.000258859 -0.000272559 -0.000283011 -0.00027844 -0.000250927 -0.000198205 -0.000124577 -4.9115e-05 -1.4152e-06 6.65851e-06 -1.47011e-05 -4.73173e-05 -7.34614e-05 -8.90718e-05 -9.22544e-05 -8.15448e-05 -5.76186e-05 -1.67674e-05 4.39659e-05 0.000116502 0.000173583 0.000200866 0.000211663 0.000225842 0.000248944 0.000273532 0.000290223 0.000297126 0.000295593 0.000287179 0.000272893 0.000250557 0.000216215 -0.000333006 -0.000357582 -0.000365025 -0.000358367 -0.000334585 -0.000289268 0.000100452 0.000150798 0.000185036 0.000191186 0.000174055 0.000145063 0.000116381 9.5842e-05 8.33565e-05 7.34259e-05 6.03601e-05 4.06166e-05 1.63671e-05 -3.73546e-06 -1.47752e-05 -1.72912e-05 -1.42244e-05 -8.37045e-06 3.18857e-08 1.21062e-05 2.77119e-05 4.44941e-05 6.57338e-05 0.000102445 0.000160982 0.000230644 0.000287896 0.000330757 0.000384608 0.000469411 0.000574987 0.000676616 0.000759434 0.000824074 0.000877811 0.000924469 0.000966236 0.00100207 0.00102916 0.00104953 0.00105582 0.00102363 0.000962941 0.000893992 0.000806242 0.00070061 0.000585574 0.000469373 0.00035785 0.000253242 0.000155043 6.01086e-05 -3.88082e-05 -0.00014386 -0.00024221 -0.000308094 -0.000329859 -0.000318966 -0.000297766 -0.00028509 -0.000287593 -0.000303919 -0.00032734 -0.000346375 -0.000349167 -0.00032724 -0.000278924 -0.000214828 -0.00015854 -0.000124276 -0.000111127 -0.000112941 -0.000122514 -0.000133565 -0.000137367 -0.000127507 -9.99799e-05 -4.86711e-05 2.50669e-05 0.00011046 0.000180892 0.000221309 0.000242263 0.000261578 0.000283217 0.000300455 0.000308857 0.000309755 0.000305158 0.000296091 0.000283345 0.000265411 0.00023802 -0.000317309 -0.000348695 -0.00036306 -0.000363151 -0.000353498 -0.000331834 -0.000292308 -0.000233196 0.000107947 0.000156442 0.000185519 0.000188495 0.000170178 0.000141476 0.00011323 9.14731e-05 7.63634e-05 6.33038e-05 4.75162e-05 2.54508e-05 -2.57799e-06 -2.7579e-05 -3.94035e-05 -3.66584e-05 -2.46571e-05 -9.09401e-06 1.19588e-05 4.58279e-05 9.07899e-05 0.000132006 0.00016664 0.000207459 0.0002608 0.000316989 0.000356834 0.00037984 0.00041172 0.000476052 0.00056692 0.000662674 0.000746577 0.000816456 0.000876512 0.000930192 0.000975808 0.00101091 0.00103321 0.00104322 0.0010362 0.000997405 0.000924318 0.000835212 0.000728 0.000608771 0.00048921 0.000377509 0.000275709 0.000182689 9.73735e-05 1.3909e-05 -7.7616e-05 -0.000177854 -0.000271128 -0.000333899 -0.000354206 -0.000341859 -0.000317598 -0.000300309 -0.000300523 -0.000319849 -0.000354174 -0.000393436 -0.000422957 -0.000430068 -0.00040802 -0.000360813 -0.000302698 -0.000246844 -0.000202493 -0.000177176 -0.000170312 -0.000174009 -0.000177379 -0.000170335 -0.000143949 -9.07914e-05 -1.35881e-05 7.27508e-05 0.000144516 0.000190746 0.000218009 0.000239315 0.000257852 0.000269412 0.000272837 0.000270381 0.000265177 0.000259107 0.000251808 0.000242439 0.000227592 0.000198192 -0.000289117 -0.000324384 -0.000345626 -0.000352293 -0.000346736 -0.000332801 -0.000309375 -0.000271425 -0.000217189 -0.000152961 9.99153e-05 0.000142504 0.000169106 0.000174201 0.000161768 0.000141542 0.000120621 0.000102028 8.56856e-05 6.88271e-05 4.85289e-05 2.07601e-05 -1.5428e-05 -4.73848e-05 -6.15945e-05 -5.51331e-05 -3.50287e-05 -1.14782e-05 1.87516e-05 6.72604e-05 0.00012818 0.000180561 0.000221478 0.000263979 0.000313607 0.000360484 0.000390181 0.000403712 0.000422381 0.000466059 0.000534159 0.000613284 0.000689492 0.000760602 0.00082663 0.000885718 0.000933828 0.00096774 0.000984439 0.000981662 0.000956317 0.000903392 0.000817715 0.000707622 0.000582246 0.000454211 0.000335935 0.000233071 0.000143375 6.49722e-05 -4.11084e-06 -7.06092e-05 -0.000143914 -0.000223912 -0.000296511 -0.000343242 -0.000354856 -0.000339979 -0.000316009 -0.000299694 -0.000302905 -0.000326991 -0.000366357 -0.000412415 -0.000452573 -0.000473913 -0.00046877 -0.000437133 -0.000385719 -0.000324264 -0.000267163 -0.000228061 -0.000209799 -0.000206875 -0.000209751 -0.000206321 -0.000184971 -0.000137859 -6.80528e-05 7.7974e-06 7.05404e-05 0.00011239 0.000137468 0.000154156 0.000166118 0.000172418 0.000173759 0.000173012 0.000173583 0.000176381 0.000180077 0.00018395 0.000185481 0.000176956 -0.00024421 -0.00028828 -0.000316809 -0.000332255 -0.000334845 -0.000325635 -0.000306656 -0.000278757 -0.000239812 -0.000188875 -0.000131042 -8.10729e-05 8.0149e-05 0.000115398 0.00014136 0.000153585 0.000155169 0.000151465 0.000144279 0.000133382 0.000117883 9.74553e-05 7.244e-05 3.96279e-05 -2.46407e-06 -4.11394e-05 -6.19071e-05 -6.00193e-05 -4.10549e-05 -1.64654e-05 1.49625e-05 6.28729e-05 0.000120201 0.000168659 0.000207757 0.000250089 0.000300004 0.000345432 0.000373264 0.000384275 0.000394451 0.00041905 0.00046142 0.000517843 0.000581621 0.000649427 0.000717045 0.000777768 0.000825976 0.000857172 0.000867169 0.000852738 0.000811725 0.00074226 0.000643969 0.00052232 0.000390529 0.000264563 0.000155962 6.63656e-05 -9.52664e-06 -7.2771e-05 -0.000124778 -0.0001713 -0.000220413 -0.000271067 -0.000312078 -0.000332448 -0.000329321 -0.000312414 -0.000294731 -0.000288012 -0.000299735 -0.000328252 -0.000365238 -0.000403356 -0.000436243 -0.000456051 -0.000458547 -0.000442171 -0.000407217 -0.000357724 -0.000306033 -0.00026556 -0.000242643 -0.000235672 -0.000237016 -0.000234667 -0.000216834 -0.000177188 -0.000120715 -6.27379e-05 -1.72741e-05 1.2169e-05 2.71476e-05 3.29797e-05 3.45634e-05 3.40393e-05 3.38481e-05 3.803e-05 4.95498e-05 6.63993e-05 8.53949e-05 0.000106153 0.000128222 0.000144637 0.000144453 -0.000234182 -0.000271899 -0.00029752 -0.000311944 -0.000314317 -0.000303144 -0.00027936 -0.000246588 -0.000206033 -0.000156938 -0.000102203 -5.57393e-05 5.58755e-05 8.29877e-05 0.000108981 0.0001316 0.000151934 0.000168927 0.000178547 0.00017881 0.000168628 0.000149349 0.000124126 8.95634e-05 4.31586e-05 -5.50202e-06 -4.16498e-05 -5.64814e-05 -4.87034e-05 -2.89377e-05 -2.41768e-06 3.34868e-05 7.43179e-05 0.000109878 0.000142025 0.00018161 0.00023154 0.000279436 0.000310958 0.000322602 0.000325039 0.000331982 0.000349304 0.000381281 0.000427878 0.000485534 0.000546889 0.000603537 0.000648061 0.000673635 0.000673682 0.000645137 0.000589442 0.000510046 0.000411402 0.000298944 0.00018238 7.52979e-05 -1.35686e-05 -8.56309e-05 -0.000146014 -0.000194454 -0.000230085 -0.000256775 -0.000281386 -0.000302799 -0.000312151 -0.00030403 -0.000284718 -0.000268456 -0.000262669 -0.000269566 -0.000290299 -0.000320506 -0.00034917 -0.000370436 -0.000386356 -0.0003981 -0.000406827 -0.000409429 -0.000400392 -0.000375605 -0.000339032 -0.000302035 -0.000275941 -0.000263617 -0.000259089 -0.000251568 -0.000231397 -0.000195452 -0.000150996 -0.000110729 -8.3379e-05 -6.91668e-05 -6.86941e-05 -7.8841e-05 -9.23435e-05 -0.000102823 -0.000105181 -9.46698e-05 -6.99254e-05 -3.6532e-05 -9.02062e-07 3.56384e-05 7.678e-05 0.000117182 -0.000215004 -0.000246547 -0.000270332 -0.000286037 -0.000291001 -0.000281081 -0.000256478 -0.0002214 -0.000178381 -0.000129129 -7.60206e-05 -3.06105e-05 3.47406e-05 5.4748e-05 8.0186e-05 0.000112209 0.000149721 0.000185115 0.000209757 0.000221639 0.000220936 0.000211197 0.000194004 0.000161303 0.000108064 4.13391e-05 -2.05178e-05 -6.151e-05 -7.03155e-05 -5.63095e-05 -3.42394e-05 -1.00402e-05 1.36396e-05 3.50348e-05 5.86043e-05 9.20943e-05 0.000136253 0.000182199 0.00021596 0.000228104 0.000223916 0.000215774 0.000211588 0.00022026 0.000245659 0.00028648 0.000336566 0.000386752 0.000426076 0.000442935 0.000427632 0.00038088 0.000313188 0.000235498 0.000154178 7.11582e-05 -9.66703e-06 -8.08537e-05 -0.000140014 -0.000190504 -0.000234208 -0.000269183 -0.000292442 -0.000305428 -0.00031354 -0.00031415 -0.000298411 -0.000266712 -0.000236497 -0.000223878 -0.000230041 -0.000248637 -0.000275209 -0.000302381 -0.000318626 -0.000322565 -0.000324578 -0.000334864 -0.000356623 -0.000384217 -0.000405455 -0.000407191 -0.000384702 -0.000347063 -0.000310994 -0.000285481 -0.000267454 -0.00024848 -0.000221788 -0.000187732 -0.000154349 -0.00012888 -0.000114429 -0.000111882 -0.000123462 -0.0001483 -0.000177553 -0.000199457 -0.000204276 -0.000187457 -0.000150533 -0.000102361 -5.3428e-05 -6.36583e-06 4.63543e-05 -0.000192092 -0.000218808 -0.000240817 -0.000258307 -0.000267974 -0.000263853 -0.000244324 -0.000212514 -0.000171401 -0.000125092 -7.56449e-05 -2.939e-05 5.33353e-07 1.89323e-05 3.48038e-05 5.93259e-05 9.64009e-05 0.000145004 0.000192329 0.000226192 0.00024515 0.000253284 0.000255793 0.000247778 0.000217616 0.000157446 7.26003e-05 -1.26927e-05 -7.74813e-05 -0.000104224 -9.83251e-05 -7.90483e-05 -6.14865e-05 -4.96533e-05 -3.99317e-05 -2.4412e-05 2.14831e-06 3.62423e-05 7.1119e-05 9.75596e-05 0.000105465 9.48061e-05 7.50578e-05 5.63668e-05 4.89911e-05 5.744e-05 8.39284e-05 0.000126054 0.000174432 0.000212743 0.000221505 0.000188488 0.000123734 5.0502e-05 -1.60328e-05 -7.20602e-05 -0.000119603 -0.000158638 -0.000190387 -0.000219048 -0.0002476 -0.00027494 -0.000297822 -0.000313021 -0.000321052 -0.0003226 -0.000311704 -0.000279327 -0.00023213 -0.000195878 -0.000185404 -0.000200041 -0.000226913 -0.000253823 -0.000271632 -0.00027459 -0.000267922 -0.000267565 -0.00028751 -0.000331109 -0.000389389 -0.000441543 -0.000464054 -0.000445852 -0.000395672 -0.000336878 -0.000287568 -0.000250028 -0.000218429 -0.000188115 -0.000160631 -0.000139203 -0.00012516 -0.000119616 -0.000124544 -0.000142059 -0.000172651 -0.000209404 -0.000238295 -0.000245195 -0.000224281 -0.000179348 -0.000124162 -7.13939e-05 -1.98906e-05 3.7894e-05 9.81044e-05 0.000148342 0.000177663 0.000160485 -0.000169086 -0.000192879 -0.000214658 -0.000235479 -0.000252114 -0.000257626 -0.00024841 -0.000226002 -0.000195005 -0.000158697 -0.00011601 -6.83507e-05 -2.92055e-05 -7.28109e-06 6.03409e-06 1.99956e-05 4.39618e-05 8.21384e-05 0.000133457 0.000183112 0.000217709 0.000237324 0.000250344 0.000259524 0.000255598 0.000225492 0.000162181 7.44668e-05 -1.58146e-05 -9.00642e-05 -0.000129787 -0.000136075 -0.000124559 -0.000113758 -0.000110603 -0.000110382 -0.000103284 -8.53107e-05 -6.35891e-05 -4.5427e-05 -3.49408e-05 -3.81606e-05 -5.66932e-05 -8.32911e-05 -0.000106686 -0.000118111 -0.000113584 -8.84893e-05 -4.34916e-05 1.12529e-05 5.30781e-05 5.57684e-05 9.92427e-06 -6.5901e-05 -0.00013938 -0.000193384 -0.000228288 -0.000248638 -0.000257237 -0.000259661 -0.000263646 -0.000272278 -0.000284319 -0.000297027 -0.000309291 -0.000319829 -0.000322963 -0.000307419 -0.000263761 -0.000205566 -0.000163873 -0.00015309 -0.000171625 -0.00020112 -0.000222618 -0.000228432 -0.000220582 -0.000212229 -0.000219765 -0.000256187 -0.000326295 -0.00041672 -0.000494705 -0.000527849 -0.00050259 -0.000429068 -0.000338188 -0.000260626 -0.000205959 -0.000169052 -0.000143543 -0.000126217 -0.000115501 -0.000110225 -0.000111931 -0.000122846 -0.000141975 -0.000168988 -0.000201124 -0.000227411 -0.000233339 -0.00021149 -0.000167399 -0.000115789 -6.50297e-05 -1.25583e-05 4.34755e-05 9.70745e-05 0.000141119 0.000167218 0.000170137 0.000148963 0.000103374 4.07024e-05 -1.78416e-05 -5.56206e-05 -0.000149152 -0.000170405 -0.00019344 -0.000219722 -0.000246082 -0.000265662 -0.000272565 -0.000266002 -0.000250513 -0.000227993 -0.000192289 -0.000141828 -9.01476e-05 -4.73534e-05 -7.75958e-06 5.94968e-06 2.99762e-05 6.51512e-05 0.000109102 0.000149345 0.000177032 0.000193431 0.000205799 0.00021583 0.000212653 0.000184018 0.000126145 5.17161e-05 -2.35158e-05 -8.99266e-05 -0.000132168 -0.000147019 -0.000145444 -0.000143934 -0.000150819 -0.000162819 -0.000169515 -0.000166489 -0.000163284 -0.000166312 -0.00017444 -0.00018812 -0.000209218 -0.000233834 -0.000251854 -0.000255938 -0.000241605 -0.000205612 -0.000150089 -8.71303e-05 -4.33111e-05 -4.53672e-05 -9.70544e-05 -0.000174861 -0.000243332 -0.000285676 -0.00030643 -0.000313599 -0.000308895 -0.000295883 -0.000282128 -0.000274281 -0.000273669 -0.000280738 -0.000295347 -0.000312229 -0.000319641 -0.000301837 -0.000251384 -0.000186879 -0.000141556 -0.000130379 -0.000145741 -0.000168587 -0.000181902 -0.000179132 -0.000167784 -0.000163347 -0.000179367 -0.000229044 -0.000319297 -0.000432079 -0.000524799 -0.000561095 -0.000526124 -0.000429566 -0.000310404 -0.000212411 -0.000150819 -0.000117884 -0.000101321 -9.42478e-05 -9.36234e-05 -9.7024e-05 -0.00010556 -0.000120716 -0.000138889 -0.000158064 -0.0001774 -0.000192243 -0.000192857 -0.000173395 -0.000137794 -9.42907e-05 -4.5306e-05 7.00222e-06 5.49017e-05 9.44373e-05 0.000124739 0.000141147 0.000138141 0.000115393 7.47081e-05 2.43605e-05 -2.23531e-05 -5.54586e-05 -7.10245e-05 -7.6804e-05 -8.25716e-05 -9.16644e-05 -0.000104371 -0.000118644 -0.000132791 -0.000149747 -0.000174026 -0.000207887 -0.000247763 -0.000286135 -0.000314496 -0.000328346 -0.000328859 -0.000315848 -0.000282671 -0.000227394 -0.000160642 -9.44104e-05 -2.90746e-05 4.39389e-05 0.000125074 0.000196897 -2.40946e-05 -8.79688e-06 1.58883e-05 4.41523e-05 7.32024e-05 9.72793e-05 0.000114282 0.00012579 0.000135331 0.000142346 0.000137735 0.000113578 7.02197e-05 1.86246e-05 -3.13114e-05 -7.6846e-05 -0.000109507 -0.00012345 -0.000126603 -0.000133955 -0.00015474 -0.000185544 -0.000213113 -0.000232906 -0.000255684 -0.000282185 -0.000301931 -0.000313873 -0.000324884 -0.0003375 -0.000343778 -0.000335871 -0.00030795 -0.000259138 -0.00019632 -0.000134945 -9.97002e-05 -0.000110604 -0.000163173 -0.000230678 -0.000282915 -0.000310142 -0.000322017 -0.000326388 -0.000319529 -0.000299581 -0.000274385 -0.00025514 -0.000247562 -0.000254882 -0.000275178 -0.000297922 -0.000305886 -0.000283659 -0.000231918 -0.000171264 -0.000129005 -0.0001177 -0.000125818 -0.000138198 -0.000143091 -0.000135844 -0.000124434 -0.000122083 -0.000140599 -0.000192389 -0.000284892 -0.000401408 -0.000497477 -0.00053382 -0.000494987 -0.000388331 -0.000259008 -0.000157074 -9.92869e-05 -7.68654e-05 -7.32801e-05 -7.90236e-05 -8.92872e-05 -0.000100818 -0.00011328 -0.000127691 -0.000140704 -0.000150472 -0.000157002 -0.000159385 -0.000153765 -0.000136577 -0.000108715 -7.13486e-05 -2.33285e-05 2.68889e-05 6.50674e-05 9.14928e-05 0.000108902 0.000115166 0.000106329 8.28628e-05 4.80589e-05 8.80565e-06 -2.85213e-05 -5.69171e-05 -7.17737e-05 -7.97884e-05 -8.79387e-05 -9.73515e-05 -0.000107582 -0.000115682 -0.000120722 -0.000131874 -0.00015717 -0.000199747 -0.000254353 -0.000310799 -0.000358502 -0.000388165 -0.00039662 -0.000384085 -0.000348814 -0.00028943 -0.000210842 -0.000124451 -3.56112e-05 6.17149e-05 0.00016483 0.000253071 0.000308456 0.000331458 0.000330639 0.000314536 -3.69759e-05 -1.98506e-05 4.55456e-06 2.41397e-05 3.65902e-05 4.5601e-05 5.45284e-05 6.37151e-05 7.11674e-05 7.33358e-05 6.49827e-05 4.41782e-05 1.52281e-05 -1.44406e-05 -4.03772e-05 -6.22831e-05 -7.69867e-05 -8.11493e-05 -8.23447e-05 -9.61322e-05 -0.000130702 -0.000180998 -0.000231263 -0.00027707 -0.00032648 -0.000368907 -0.000385783 -0.000379996 -0.000369299 -0.000364649 -0.000359892 -0.000345559 -0.000312156 -0.000260819 -0.000205916 -0.000164182 -0.00015117 -0.000177503 -0.000227881 -0.000274157 -0.00029775 -0.000301946 -0.000302242 -0.000303211 -0.000294394 -0.000269813 -0.000237633 -0.00021386 -0.000207289 -0.000219616 -0.00024673 -0.00027331 -0.000277864 -0.000250854 -0.000202638 -0.000152933 -0.000120132 -0.000110469 -0.000113574 -0.000117573 -0.000114534 -0.000102648 -8.84698e-05 -8.31895e-05 -9.77434e-05 -0.000141218 -0.000218403 -0.000319115 -0.000407475 -0.000443748 -0.00040992 -0.000313291 -0.000198329 -0.000110899 -6.82697e-05 -6.12348e-05 -7.28151e-05 -9.14593e-05 -0.000109569 -0.000123941 -0.000134352 -0.000141888 -0.000146012 -0.000146026 -0.000142307 -0.000135091 -0.000123808 -0.000107054 -8.40117e-05 -5.18401e-05 -7.72946e-06 3.7681e-05 6.99465e-05 8.97682e-05 0.000100283 0.000101346 9.06259e-05 6.78683e-05 3.61689e-05 1.60985e-06 -3.06963e-05 -5.57213e-05 -7.18336e-05 -8.35458e-05 -9.3999e-05 -0.000104286 -0.000114012 -0.000119912 -0.000121574 -0.000131072 -0.000157803 -0.000204653 -0.000267343 -0.000333138 -0.000388506 -0.000420523 -0.000425557 -0.000406411 -0.000364828 -0.000300082 -0.000214054 -0.000117428 -1.63402e-05 9.31269e-05 0.000203274 0.000292697 0.000346401 0.000366126 0.000363618 0.000350052 0.000325017 0.000279607 -4.33062e-05 -2.63361e-05 -2.90941e-06 8.23024e-06 5.14071e-06 3.09964e-06 1.0092e-05 2.27605e-05 3.13612e-05 2.87902e-05 1.38445e-05 -9.46804e-06 -3.32736e-05 -5.0071e-05 -5.78886e-05 -5.87313e-05 -5.274e-05 -4.09634e-05 -3.45128e-05 -5.13439e-05 -9.44028e-05 -0.000154203 -0.0002185 -0.000284359 -0.00035175 -0.000397817 -0.000399335 -0.000365271 -0.000328704 -0.000310448 -0.000304075 -0.000294581 -0.000270307 -0.000236556 -0.000210077 -0.000203056 -0.000221961 -0.000264991 -0.000310026 -0.000329657 -0.000316964 -0.000290434 -0.000270541 -0.000259076 -0.000242432 -0.000211787 -0.000177624 -0.000156647 -0.000155483 -0.000173917 -0.000206395 -0.00023533 -0.000237653 -0.000209191 -0.000166186 -0.00012964 -0.000110274 -0.000105975 -0.000105958 -0.000102017 -9.15069e-05 -7.48824e-05 -5.6125e-05 -4.54667e-05 -5.29892e-05 -8.3738e-05 -0.000139152 -0.000213779 -0.000286213 -0.000322429 -0.000301058 -0.000230868 -0.000147941 -8.85818e-05 -6.65758e-05 -7.43364e-05 -9.72527e-05 -0.000123475 -0.000143783 -0.000155057 -0.000158179 -0.000155382 -0.000149652 -0.000140847 -0.000128941 -0.00011407 -9.69736e-05 -7.88395e-05 -5.92096e-05 -3.39901e-05 1.36957e-06 3.92214e-05 6.86141e-05 8.75112e-05 9.72328e-05 9.87487e-05 9.02979e-05 6.97494e-05 3.91839e-05 4.68465e-06 -2.65475e-05 -5.08412e-05 -6.83894e-05 -8.17296e-05 -9.37571e-05 -0.00010667 -0.000119572 -0.000129554 -0.000136973 -0.000151121 -0.000180775 -0.000227316 -0.000288143 -0.000351006 -0.000398752 -0.000419456 -0.000411196 -0.000377387 -0.000322823 -0.000250797 -0.000164537 -7.03502e-05 2.84126e-05 0.000134595 0.000236064 0.000312856 0.000355818 0.000368545 0.00036253 0.000350262 0.000331332 0.000291862 -5.01284e-05 -3.81268e-05 -1.969e-05 -1.71323e-05 -3.16789e-05 -4.06227e-05 -2.82683e-05 -2.22989e-06 1.41511e-05 6.72211e-06 -2.10243e-05 -5.78254e-05 -8.90137e-05 -0.000101627 -9.47329e-05 -7.47409e-05 -4.55684e-05 -1.42254e-05 1.83191e-06 -1.18987e-05 -5.27146e-05 -0.000107067 -0.000169779 -0.000241846 -0.000315979 -0.000359348 -0.000344581 -0.000285