# vtk DataFile Version 2.0
3D Data
ASCII
DATASET UNSTRUCTURED_GRID
POINTS 7482 double 
1.317e+06 2.13836e+06 -10000
1.327e+06 2.13836e+06 -10000
1.337e+06 2.13836e+06 -10000
1.347e+06 2.13836e+06 -10000
1.357e+06 2.13836e+06 -10000
1.487e+06 2.13836e+06 -10000
1.297e+06 2.14836e+06 -10000
1.307e+06 2.14836e+06 -10000
1.317e+06 2.14836e+06 -10000
1.327e+06 2.14836e+06 -10000
1.337e+06 2.14836e+06 -10000
1.347e+06 2.14836e+06 -10000
1.357e+06 2.14836e+06 -10000
1.367e+06 2.14836e+06 -10000
1.467e+06 2.14836e+06 -10000
1.477e+06 2.14836e+06 -10000
1.487e+06 2.14836e+06 -10000
1.497e+06 2.14836e+06 -10000
1.547e+06 2.14836e+06 -10000
1.557e+06 2.14836e+06 -10000
1.567e+06 2.14836e+06 -10000
1.587e+06 2.14836e+06 -10000
1.597e+06 2.14836e+06 -10000
1.287e+06 2.15836e+06 -10000
1.297e+06 2.15836e+06 -10000
1.307e+06 2.15836e+06 -10000
1.317e+06 2.15836e+06 -10000
1.327e+06 2.15836e+06 -10000
1.337e+06 2.15836e+06 -10000
1.347e+06 2.15836e+06 -10000
1.357e+06 2.15836e+06 -10000
1.367e+06 2.15836e+06 -10000
1.377e+06 2.15836e+06 -10000
1.457e+06 2.15836e+06 -10000
1.467e+06 2.15836e+06 -10000
1.477e+06 2.15836e+06 -10000
1.487e+06 2.15836e+06 -10000
1.497e+06 2.15836e+06 -10000
1.507e+06 2.15836e+06 -10000
1.527e+06 2.15836e+06 -10000
1.537e+06 2.15836e+06 -10000
1.547e+06 2.15836e+06 -10000
1.557e+06 2.15836e+06 -10000
1.567e+06 2.15836e+06 -10000
1.577e+06 2.15836e+06 -10000
1.587e+06 2.15836e+06 -10000
1.597e+06 2.15836e+06 -10000
1.607e+06 2.15836e+06 -10000
1.617e+06 2.15836e+06 -10000
1.627e+06 2.15836e+06 -10000
1.967e+06 2.15836e+06 -10000
1.277e+06 2.16836e+06 -10000
1.287e+06 2.16836e+06 -10000
1.297e+06 2.16836e+06 -10000
1.307e+06 2.16836e+06 -10000
1.317e+06 2.16836e+06 -10000
1.327e+06 2.16836e+06 -10000
1.337e+06 2.16836e+06 -10000
1.347e+06 2.16836e+06 -10000
1.357e+06 2.16836e+06 -10000
1.367e+06 2.16836e+06 -10000
1.377e+06 2.16836e+06 -10000
1.427e+06 2.16836e+06 -10000
1.437e+06 2.16836e+06 -10000
1.447e+06 2.16836e+06 -10000
1.457e+06 2.16836e+06 -10000
1.467e+06 2.16836e+06 -10000
1.477e+06 2.16836e+06 -10000
1.487e+06 2.16836e+06 -10000
1.497e+06 2.16836e+06 -10000
1.507e+06 2.16836e+06 -10000
1.517e+06 2.16836e+06 -10000
1.527e+06 2.16836e+06 -10000
1.537e+06 2.16836e+06 -10000
1.547e+06 2.16836e+06 -10000
1.557e+06 2.16836e+06 -10000
1.567e+06 2.16836e+06 -10000
1.577e+06 2.16836e+06 -10000
1.587e+06 2.16836e+06 -10000
1.597e+06 2.16836e+06 -10000
1.607e+06 2.16836e+06 -10000
1.617e+06 2.16836e+06 -10000
1.627e+06 2.16836e+06 -10000
1.637e+06 2.16836e+06 -10000
1.957e+06 2.16836e+06 -10000
1.967e+06 2.16836e+06 -10000
1.977e+06 2.16836e+06 -10000
1.247e+06 2.17836e+06 -10000
1.257e+06 2.17836e+06 -10000
1.267e+06 2.17836e+06 -10000
1.277e+06 2.17836e+06 -10000
1.287e+06 2.17836e+06 -10000
1.297e+06 2.17836e+06 -10000
1.307e+06 2.17836e+06 -10000
1.317e+06 2.17836e+06 -10000
1.327e+06 2.17836e+06 -10000
1.337e+06 2.17836e+06 -10000
1.347e+06 2.17836e+06 -10000
1.357e+06 2.17836e+06 -10000
1.367e+06 2.17836e+06 -10000
1.377e+06 2.17836e+06 -10000
1.387e+06 2.17836e+06 -10000
1.397e+06 2.17836e+06 -10000
1.407e+06 2.17836e+06 -10000
1.417e+06 2.17836e+06 -10000
1.427e+06 2.17836e+06 -10000
1.437e+06 2.17836e+06 -10000
1.447e+06 2.17836e+06 -10000
1.457e+06 2.17836e+06 -10000
1.467e+06 2.17836e+06 -10000
1.477e+06 2.17836e+06 -10000
1.487e+06 2.17836e+06 -10000
1.497e+06 2.17836e+06 -10000
1.507e+06 2.17836e+06 -10000
1.517e+06 2.17836e+06 -10000
1.527e+06 2.17836e+06 -10000
1.537e+06 2.17836e+06 -10000
1.547e+06 2.17836e+06 -10000
1.557e+06 2.17836e+06 -10000
1.567e+06 2.17836e+06 -10000
1.577e+06 2.17836e+06 -10000
1.587e+06 2.17836e+06 -10000
1.597e+06 2.17836e+06 -10000
1.607e+06 2.17836e+06 -10000
1.617e+06 2.17836e+06 -10000
1.627e+06 2.17836e+06 -10000
1.637e+06 2.17836e+06 -10000
1.647e+06 2.17836e+06 -10000
1.657e+06 2.17836e+06 -10000
1.667e+06 2.17836e+06 -10000
1.727e+06 2.17836e+06 -10000
1.947e+06 2.17836e+06 -10000
1.957e+06 2.17836e+06 -10000
1.967e+06 2.17836e+06 -10000
1.977e+06 2.17836e+06 -10000
1.987e+06 2.17836e+06 -10000
1.007e+06 2.18836e+06 -10000
1.017e+06 2.18836e+06 -10000
1.027e+06 2.18836e+06 -10000
1.037e+06 2.18836e+06 -10000
1.047e+06 2.18836e+06 -10000
1.057e+06 2.18836e+06 -10000
1.097e+06 2.18836e+06 -10000
1.237e+06 2.18836e+06 -10000
1.247e+06 2.18836e+06 -10000
1.257e+06 2.18836e+06 -10000
1.267e+06 2.18836e+06 -10000
1.277e+06 2.18836e+06 -10000
1.287e+06 2.18836e+06 -10000
1.297e+06 2.18836e+06 -10000
1.307e+06 2.18836e+06 -10000
1.317e+06 2.18836e+06 -10000
1.327e+06 2.18836e+06 -10000
1.337e+06 2.18836e+06 -10000
1.347e+06 2.18836e+06 -10000
1.357e+06 2.18836e+06 -10000
1.367e+06 2.18836e+06 -10000
1.377e+06 2.18836e+06 -10000
1.387e+06 2.18836e+06 -10000
1.397e+06 2.18836e+06 -10000
1.407e+06 2.18836e+06 -10000
1.417e+06 2.18836e+06 -10000
1.427e+06 2.18836e+06 -10000
1.437e+06 2.18836e+06 -10000
1.447e+06 2.18836e+06 -10000
1.457e+06 2.18836e+06 -10000
1.467e+06 2.18836e+06 -10000
1.477e+06 2.18836e+06 -10000
1.487e+06 2.18836e+06 -10000
1.497e+06 2.18836e+06 -10000
1.507e+06 2.18836e+06 -10000
1.517e+06 2.18836e+06 -10000
1.527e+06 2.18836e+06 -10000
1.537e+06 2.18836e+06 -10000
1.547e+06 2.18836e+06 -10000
1.557e+06 2.18836e+06 -10000
1.567e+06 2.18836e+06 -10000
1.577e+06 2.18836e+06 -10000
1.587e+06 2.18836e+06 -10000
1.597e+06 2.18836e+06 -10000
1.607e+06 2.18836e+06 -10000
1.617e+06 2.18836e+06 -10000
1.627e+06 2.18836e+06 -10000
1.637e+06 2.18836e+06 -10000
1.647e+06 2.18836e+06 -10000
1.657e+06 2.18836e+06 -10000
1.667e+06 2.18836e+06 -10000
1.677e+06 2.18836e+06 -10000
1.687e+06 2.18836e+06 -10000
1.697e+06 2.18836e+06 -10000
1.717e+06 2.18836e+06 -10000
1.727e+06 2.18836e+06 -10000
1.737e+06 2.18836e+06 -10000
1.937e+06 2.18836e+06 -10000
1.947e+06 2.18836e+06 -10000
1.957e+06 2.18836e+06 -10000
1.967e+06 2.18836e+06 -10000
1.977e+06 2.18836e+06 -10000
1.987e+06 2.18836e+06 -10000
1.997e+06 2.18836e+06 -10000
997000 2.19836e+06 -10000
1.007e+06 2.19836e+06 -10000
1.017e+06 2.19836e+06 -10000
1.027e+06 2.19836e+06 -10000
1.037e+06 2.19836e+06 -10000
1.047e+06 2.19836e+06 -10000
1.057e+06 2.19836e+06 -10000
1.067e+06 2.19836e+06 -10000
1.077e+06 2.19836e+06 -10000
1.087e+06 2.19836e+06 -10000
1.097e+06 2.19836e+06 -10000
1.107e+06 2.19836e+06 -10000
1.117e+06 2.19836e+06 -10000
1.127e+06 2.19836e+06 -10000
1.137e+06 2.19836e+06 -10000
1.147e+06 2.19836e+06 -10000
1.157e+06 2.19836e+06 -10000
1.167e+06 2.19836e+06 -10000
1.177e+06 2.19836e+06 -10000
1.187e+06 2.19836e+06 -10000
1.197e+06 2.19836e+06 -10000
1.207e+06 2.19836e+06 -10000
1.217e+06 2.19836e+06 -10000
1.227e+06 2.19836e+06 -10000
1.237e+06 2.19836e+06 -10000
1.247e+06 2.19836e+06 -10000
1.257e+06 2.19836e+06 -10000
1.267e+06 2.19836e+06 -10000
1.277e+06 2.19836e+06 -10000
1.287e+06 2.19836e+06 -10000
1.297e+06 2.19836e+06 -10000
1.307e+06 2.19836e+06 -10000
1.317e+06 2.19836e+06 -10000
1.327e+06 2.19836e+06 -10000
1.337e+06 2.19836e+06 -10000
1.347e+06 2.19836e+06 -10000
1.357e+06 2.19836e+06 -10000
1.367e+06 2.19836e+06 -10000
1.377e+06 2.19836e+06 -10000
1.387e+06 2.19836e+06 -10000
1.397e+06 2.19836e+06 -10000
1.407e+06 2.19836e+06 -10000
1.417e+06 2.19836e+06 -10000
1.427e+06 2.19836e+06 -10000
1.437e+06 2.19836e+06 -10000
1.447e+06 2.19836e+06 -10000
1.457e+06 2.19836e+06 -10000
1.467e+06 2.19836e+06 -10000
1.477e+06 2.19836e+06 -10000
1.487e+06 2.19836e+06 -10000
1.497e+06 2.19836e+06 -10000
1.507e+06 2.19836e+06 -10000
1.517e+06 2.19836e+06 -10000
1.527e+06 2.19836e+06 -10000
1.537e+06 2.19836e+06 -10000
1.547e+06 2.19836e+06 -10000
1.557e+06 2.19836e+06 -10000
1.567e+06 2.19836e+06 -10000
1.577e+06 2.19836e+06 -10000
1.587e+06 2.19836e+06 -10000
1.597e+06 2.19836e+06 -10000
1.607e+06 2.19836e+06 -10000
1.617e+06 2.19836e+06 -10000
1.627e+06 2.19836e+06 -10000
1.637e+06 2.19836e+06 -10000
1.647e+06 2.19836e+06 -10000
1.657e+06 2.19836e+06 -10000
1.667e+06 2.19836e+06 -10000
1.677e+06 2.19836e+06 -10000
1.687e+06 2.19836e+06 -10000
1.697e+06 2.19836e+06 -10000
1.707e+06 2.19836e+06 -10000
1.717e+06 2.19836e+06 -10000
1.727e+06 2.19836e+06 -10000
1.737e+06 2.19836e+06 -10000
1.747e+06 2.19836e+06 -10000
1.937e+06 2.19836e+06 -10000
1.947e+06 2.19836e+06 -10000
1.957e+06 2.19836e+06 -10000
1.967e+06 2.19836e+06 -10000
1.977e+06 2.19836e+06 -10000
1.987e+06 2.19836e+06 -10000
1.997e+06 2.19836e+06 -10000
2.007e+06 2.19836e+06 -10000
987000 2.20836e+06 -10000
997000 2.20836e+06 -10000
1.007e+06 2.20836e+06 -10000
1.017e+06 2.20836e+06 -10000
1.027e+06 2.20836e+06 -10000
1.037e+06 2.20836e+06 -10000
1.047e+06 2.20836e+06 -10000
1.057e+06 2.20836e+06 -10000
1.067e+06 2.20836e+06 -10000
1.077e+06 2.20836e+06 -10000
1.087e+06 2.20836e+06 -10000
1.097e+06 2.20836e+06 -10000
1.107e+06 2.20836e+06 -10000
1.117e+06 2.20836e+06 -10000
1.127e+06 2.20836e+06 -10000
1.137e+06 2.20836e+06 -10000
1.147e+06 2.20836e+06 -10000
1.157e+06 2.20836e+06 -10000
1.167e+06 2.20836e+06 -10000
1.177e+06 2.20836e+06 -10000
1.187e+06 2.20836e+06 -10000
1.197e+06 2.20836e+06 -10000
1.207e+06 2.20836e+06 -10000
1.217e+06 2.20836e+06 -10000
1.227e+06 2.20836e+06 -10000
1.237e+06 2.20836e+06 -10000
1.247e+06 2.20836e+06 -10000
1.257e+06 2.20836e+06 -10000
1.267e+06 2.20836e+06 -10000
1.277e+06 2.20836e+06 -10000
1.287e+06 2.20836e+06 -10000
1.297e+06 2.20836e+06 -10000
1.307e+06 2.20836e+06 -10000
1.317e+06 2.20836e+06 -10000
1.327e+06 2.20836e+06 -10000
1.337e+06 2.20836e+06 -10000
1.347e+06 2.20836e+06 -10000
1.357e+06 2.20836e+06 -10000
1.367e+06 2.20836e+06 -10000
1.377e+06 2.20836e+06 -10000
1.387e+06 2.20836e+06 -10000
1.397e+06 2.20836e+06 -10000
1.407e+06 2.20836e+06 -10000
1.417e+06 2.20836e+06 -10000
1.427e+06 2.20836e+06 -10000
1.437e+06 2.20836e+06 -10000
1.447e+06 2.20836e+06 -10000
1.457e+06 2.20836e+06 -10000
1.467e+06 2.20836e+06 -10000
1.477e+06 2.20836e+06 -10000
1.487e+06 2.20836e+06 -10000
1.497e+06 2.20836e+06 -10000
1.507e+06 2.20836e+06 -10000
1.517e+06 2.20836e+06 -10000
1.527e+06 2.20836e+06 -10000
1.537e+06 2.20836e+06 -10000
1.547e+06 2.20836e+06 -10000
1.557e+06 2.20836e+06 -10000
[...]
POINT_DATA 7482
SCALARS T double
LOOKUP_TABLE default
1.43737 16.7751 16.5939 13.1204 13.0358 3.85543 -16.9471 -4.35704 14.6294 26.2342 18.1468 10.3076 11.1322 9.29806 33.1027 16.2898 2.92044 -14.4758 -11.5166 -3.60092 -0.125678 13.0566 21.1624 11.0644 -1.01984 0.0767609 8.86976 18.9758 7.38721 -1.62008 2.40628 -6.91536 -17.7474 25.1917 22.0764 15.4638 2.71053 -9.26749 -3.05875 12.7059 -0.374117 -9.79072 -4.52888 -5.67743 -1.51963 14.2871 32.0211 39.2119 27.2165 5.58715 -125.439 38.688 19.4054 1.44658 -1.72197 -0.245591 1.87492 -11.9474 -23.4596 -17.9041 -26.0743 -40.7748 -0.728536 -1.51976 -6.08674 -4.81549 1.8996 -0.384193 -9.515 -12.0287 -11.0574 -3.81607 10.0096 9.60034 3.0622 -0.691785 -6.70126 0.239356 34.2947 61.8617 57.5916 27.6846 -13.1476 -26.3636 -119.708 -167.904 -164.792 66.0049 71.8665 62.0335 38.3991 11.5856 -6.73667 -14.4729 -15.8254 -24.2592 -33.9845 -42.7365 -42.7731 -49.8509 -64.895 -62.6672 -58.957 -53.1592 -46.9051 -37.4427 -27.5743 -22.6912 -16.028 -10.6854 -20.0142 -30.8902 -31.2463 -20.7401 -7.26922 2.85803 9.52124 6.46476 4.46125 6.36654 22.5999 56.5963 72.1672 47.4196 8.3884 -34.9106 -54.6278 -55.168 -51.5188 -39.1005 -45.3028 -107.076 -145.979 -170.731 -184.937 -179.413 20.2772 21.8119 31.175 34.4807 18.083 3.35829 -43.0838 56.9239 66.685 76.6149 72.0669 37.024 -4.96382 -24.6815 -34.9785 -35.4876 -36.4918 -39.5074 -48.1954 -58.2447 -70.4723 -80.0365 -74.105 -70.8586 -68.1291 -57.6929 -31.9814 -1.79875 15.4798 14.5818 -4.74486 -32.4032 -46.6336 -44.0292 -37.0247 -29.7685 -22.3311 -11.2779 -1.23596 10.0833 20.0701 31.3177 42.8865 31.6051 -1.35949 -21.1704 -50.9696 -68.529 -67.7471 -64.1649 -60.44 -54.8327 -50.8496 -48.1578 -65.8383 -85.5018 -66.3843 -91.4545 -142.368 -160.43 -170.329 -182.022 -193.092 -176.751 30.2893 23.7955 25.878 33.5872 36.5805 13.5994 1.59609 -5.35706 -15.0399 -18.8552 -22.0473 -26.6272 -16.7719 -2.01071 0.601095 -10.1829 -14.2887 -4.92632 -3.08089 -1.80694 -0.486541 2.07089 8.4272 20.3797 39.4727 67.4124 83.4381 72.8704 21.1662 -26.423 -34.1361 -34.9507 -37.4736 -39.0043 -43.855 -55.5826 -70.5997 -82.9918 -84.2476 -78.4681 -71.7532 -59.4651 -30.5096 18.9565 65.1845 86.3061 67.641 17.4625 -32.7677 -54.1605 -52.2216 -46.2462 -40.9147 -34.0944 -21.3052 -3.61697 16.2334 27.2352 29.8314 24.0687 3.33147 -12.3464 -21.6642 -47.4142 -64.102 -60.7193 -54.233 -52.3647 -57.7043 -64.2075 -65.1657 -62.4321 -65.2416 -73.3214 -78.2489 -65.8481 -113.38 -149.704 -163.314 -171.941 -178.353 -187.734 -181.43 -131.576 33.5103 27.4791 23.0496 24.0506 21.5351 11.4012 -8.50196 -19.3301 -17.6551 -16.3526 -13.838 -8.22052 -3.46125 -4.29036 -2.43837 -6.71946 -20.4429 -34.4465 -35.0977 -33.4081 -30.3756 -28.4785 -27.6344 -19.5607 0.144997 24.9775 59.3098 84.8092 68.5576 9.26427 -39.4727 -46.8747 -45.4636 -48.2967 -52.5877 -59.1063 -69.7758 -79.047 -81.6467 -79.7399 -74.2538 -55.6969 -17.9171 38.4075 96.5855 137.493 138.356 97.3674 32.8331 -26.323 -52.139 -54.7365 -48.5167 -41.0503 -32.9123 -21.7293 0.992233 25.3879 38.7495 37.6507 22.6309 0.436411 -3.90852 -13.1383 -49.6518 -66.8005 -65.72 -59.5581 -59.2205 -65.3776 -72.03 -70.8977 -64.913 -61.2542 -62.7501 -72.5363 -81.259 -60.8075 -60.0356 -81.2145 -92.2825 -117.243 -140.474 -154.966 -164.669 -170.398 -174.004 -163.086 -113.488 31.365 24.1508 19.8787 18.8271 13.5911 2.31313 -9.56641 -15.6008 -17.6856 -19.8301 -9.36545 10.2767 4.97346 -19.9681 -31.6028 -31.6393 -33.3059 -38.3473 -43.4646 -45.3934 -43.4974 -40.8659 -39.8256 -34.1173 -18.8949 4.28512 46.5129 78.2473 48.9878 -17.9086 -54.8338 -57.8509 -55.9534 -52.0687 -52.6747 -59.8973 -68.7169 -76.365 -77.3683 -73.7456 -61.3993 -23.6864 38.6244 112.99 168.927 178.099 144.558 96.0968 36.4533 -16.2472 -47.2026 -54.5328 -50.1558 -40.9223 -31.777 -21.1575 6.11772 37.7326 52.5305 46.8907 22.2087 -6.49597 -23.0464 -40.2262 -63.1851 -75.728 -77.023 -71.5882 -67.682 -69.2094 -74.2798 -74.0637 -67.7725 -60.7542 -57.3461 -58.0988 -62.5566 -66.8999 -65.5321 -71.6361 -63.0163 -50.9126 -60.8793 -46.0181 -22.7698 -6.86506 -20.3032 -56.0715 -78.9577 -89.0018 -99.9477 -113.454 -130.087 -145.972 -156.356 -156.928 -133.812 -80.1407 -24.9358 21.0878 13.528 11.502 11.2974 6.84992 1.16808 -7.09145 -12.3432 -7.64879 -6.52082 -2.56975 4.01524 -10.732 -36.7564 -44.5359 -38.4905 -36.0396 -42.4143 -49.8489 -53.9895 -54.0599 -49.505 -42.2112 -39.9215 -27.9495 1.93007 54.5594 79.4631 23.7657 -38.185 -52.416 -43.3418 -39.5607 -33.4666 -39.3735 -61.3414 -74.467 -81.4128 -80.6541 -71.8299 -44.0445 11.3655 84.3807 165.291 199.788 169.007 122.767 85.8709 41.0024 -4.70498 -36.6627 -50.1951 -51.0536 -43.815 -32.6476 -17.4295 11.6275 45.2036 57.1595 45.6794 17.562 -16.964 -42.2724 -57.9196 -67.0691 -71.5711 -72.4357 -71.8025 -69.0121 -69.4727 -73.5714 -75.9423 -73.7639 -67.2764 -62.0556 -58.3293 -57.9763 -61.4403 -71.3037 -79.7845 -76.5096 -71.0197 -63.1613 -52.2908 -52.9261 -51.4318 -64.7323 -60.7228 -35.1237 3.71244 30.1326 21.501 -12.6221 -44.1775 -56.7553 -61.5956 -72.0164 -95.0807 -119.729 -132.911 -121.686 -80.0381 -23.548 9.64417 16.3081 7.95164 -1.62527 -4.98702 -9.41939 -14.1801 -19.8279 -30.0666 -34.4132 -20.8089 -6.27489 -3.24925 -14.0132 -31.9029 -41.8805 -40.9583 -43.7096 -46.7041 -51.8893 -56.656 -57.9963 -58.6217 -57.0819 -47.9469 -43.5652 -27.8629 8.27411 63.1216 68.694 -0.798577 -37.022 -24.2956 -4.9673 -4.81138 -10.9095 -29.8937 -62.7424 -79.9459 -84.779 -81.6668 -64.8054 -14.4709 52.6851 135.026 190.327 180.218 138.27 102.025 70.4734 35.0732 0.98178 -25.4331 -42.9655 -47.8886 -41.5943 -29.2958 -10.2831 14.2731 43.6663 51.9433 35.4076 7.2062 -21.606 -41.0262 -51.6227 -58.8911 -65.6739 -67.7988 -68.1413 -70.3512 -72.2217 -74.6176 -79.4038 -83.7598 -84.8469 -80.1033 -73.8573 -72.1883 -72.5267 -74.6877 -69.7031 -55.0636 -47.2477 -41.3806 -31.9586 -27.3298 -21.5937 -21.1341 -7.24627 25.1463 60.3358 74.4581 59.5944 25.598 -6.11416 -21.5782 -31.0443 -49.645 -80.308 -105.824 -112.268 -89.1729 -42.5384 10.1453 38.0364 55.3276 20.1223 -1.25879 -13.7278 -21.828 -32.2025 -37.4834 -39.6028 -42.9414 -45.7124 -42.0901 -29.6172 -19.9143 -23.9007 -35.6667 -46.4619 -49.3223 -50.8486 -51.1161 -50.9591 -52.5223 -53.4137 -54.895 -50.4265 -43.8255 -34.7187 -7.3759 34.8224 59.489 36.4053 -7.64035 -11.8014 18.3682 28.4117 11.0745 -16.9447 -45.7822 -69.2873 -83.1924 -82.9695 -72.9221 -31.5759 49.5074 116.271 160.464 154.934 125.029 101.559 74.0871 39.8749 15.1535 -0.722446 -16.9901 -34.0442 -39.8086 -30.2382 -11.3763 3.44621 21.5793 40.9207 38.3192 22.7805 5.02879 -14.6993 -34.4034 -48.5546 -59.4935 -67.1024 -66.2349 -63.1149 -62.9945 -67.0704 -71.4782 -83.7732 -93.1935 -99.5645 -95.1467 -93.2334 -92.1736 -92.137 -84.9548 -66.3226 -37.3752 -9.64728 8.03382 20.2412 36.3447 43.3215 43.1002 55.8034 73.9184 89.9717 90.6396 70.1345 36.0795 4.94003 -16.4847 -35.6252 -63.4476 -95.9702 -118.517 -121.722 -105.676 -73.4386 -27.6674 7.42372 -1.07877 80.832 49.7989 15.6858 -12.1782 -27.7669 -36.2341 -45.834 -49.9227 -48.6396 -47.1006 -50.7385 -49.7436 -47.2498 -46.3184 -46.28 -48.2868 -47.8967 -45.788 -43.9432 -44.1388 -46.5141 -49.9708 -52.1653 -48.684 -32.1524 -20.3774 -0.353463 32.1129 54.7661 45.1276 23.6332 14.2004 30.2481 50.4035 39.7221 2.70435 -39.4072 -66.2266 -78.6267 -84.3826 -76.1 -42.8282 44.4239 133.888 155.087 115.509 67.7619 46.657 34.0482 18.2485 4.2286 -2.48686 -4.72783 -10.8156 -24.0375 -26.2792 -14.74 8.7108 15.8205 24.9053 34.9894 25.9617 10.8418 -0.452366 -17.7333 -40.5339 -57.2296 -64.6545 -67.6322 -63.9136 -57.0681 -55.0992 -59.0278 -69.7149 -85.0999 -95.2913 -102.922 -106.705 -109.579 -113.558 -108.171 -95.152 -72.09 -34.3631 11.5974 46.1104 67.9051 85.8269 104.52 117.96 113.26 94.7552 82.9441 69.2971 44.1527 8.98224 -28.2302 -58.6621 -85.0185 -110.034 -135.276 -155.32 -163.497 -167.422 -159.31 -135.602 -112.446 -98.5825 -94.4793 19.982 26.0563 8.53083 -11.1199 -31.561 -41.0187 -42.3756 -43.5869 -47.6882 -49.9003 -51.8171 -50.1766 -49.0186 -49.8894 -48.132 -47.5876 -44.0465 -38.9398 -37.5541 -38.9131 -42.9567 -46.1656 -43.5481 -33.5527 -22.9469 -2.70518 38.9898 66.8922 52.2236 19.5094 14.7436 25.8676 41.2523 45.4485 22.2978 -21.8421 -60.3689 -78.8263 -84.4887 -79.4019 -54.4198 13.503 112.546 153.811 111.573 46.4057 9.97723 -8.97952 -23.012 -24.9441 -17.9763 -14.7092 -8.87461 -5.12292 -10.4371 -12.3028 -9.19217 8.29761 13.7213 22.1625 26.2175 11.3411 -4.99078 -13.5152 -26.1081 -43.456 -55.1174 -55.8576 -57.1203 -58.1793 -56.6484 -53.4952 -55.7525 -66.6308 -82.6593 -94.8764 -103.525 -111.068 -116.268 -126.543 -120.029 -108.649 -92.1555 -58.0983 -5.29143 43.9262 77.7043 103.76 135.591 154.266 121.637 66.0199 25.5289 2.20648 -21.1055 -52.2704 -91.1709 -123.956 -149.319 -165.211 -175.417 -188.013 -200.417 -215.407 -222.459 -223.853 -218.935 -199.495 -159.049 21.5524 22.8884 15.875 14.9024 13.3285 7.42853 0.74903 -6.36573 -17.3538 -24.4641 -28.0688 -29.9828 -34.0645 -45.7755 -47.7171 -44.7157 -45.6486 -46.4535 -45.2239 -44.4667 -37.3677 -34.8016 -30.5211 -31.6033 -37.633 -36.9718 -28.9871 -18.3695 -8.18046 27.669 75.0692 86.0165 48.6384 9.25811 7.52111 15.7234 19.7002 11.4633 -13.7878 -46.3749 -71.7443 -83.1674 -82.0747 -66.452 -24.4164 54.4666 118.058 102.489 46.0867 4.51758 -19.6621 -35.9195 -42.8162 -37.9822 -28.5698 -26.5555 -18.1752 -6.02136 -1.74997 -6.47411 -10.4302 -4.10394 1.87791 12.0903 15.6886 0.160192 -10.9258 -16.3375 -24.6481 -37.6875 -46.9031 -49.516 -55.3015 -59.7394 -58.5189 -54.7421 -57.1422 -68.2526 -79.4491 -88.489 -95.9814 -107.166 -115.982 -129.664 -133.646 -130.729 -123.438 -102.321 -58.8846 -2.86932 45.5813 80.2795 108.737 113.403 65.6079 -0.0203805 -42.7704 -62.27 -80.9917 -108.09 -142.135 -172.81 -191.991 -202.534 -204.612 -210.619 -222.186 -238.905 -250.389 -258.69 -262.256 -252.158 25.672 27.5347 11.4412 3.75382 2.57491 1.96257 -1.0197 -5.83355 -9.96541 -9.77147 -8.906 -12.8845 -23.3948 -32.7253 -33.4195 -25.0114 -35.6151 -43.3256 -40.332 -34.9515 -37.2757 -36.9518 -39.1322 -32.9382 -27.8725 -27.26 -25.3589 -23.4071 -20.3979 -14.4974 -5.29565 17.0222 59.6768 88.3877 80.2635 41.7081 11.4022 7.777 8.46194 4.88273 -11.2976 -30.5948 -47.8046 -65.9449 -78.1918 -75.3963 -52.3024 -11.3599 45.1618 68.6471 42.8967 8.89223 -19.0273 -37.1138 -40.9684 -37.3755 -32.7088 -32.003 -34.1615 -26.182 -14.1122 -7.16133 -8.43509 -11.0138 -11.652 -8.05029 1.05944 -1.10793 -9.46111 -13.4633 -17.2266 -28.4516 -40.8737 -45.1336 -47.4364 -54.1213 -61.604 -62.8873 -59.0565 -61.0526 -71.1097 -80.1618 -87.8904 -92.3597 -102.383 -114.35 -128.741 -140.942 -147.34 -147.052 -138.666 -114.596 -70.163 -21.9348 11.6784 25.685 16.276 -19.9304 -59.8318 -85.2027 -98.0787 -115.282 -142.477 -169.694 -197.718 -217.397 -226.197 -227.82 -230.534 -237.494 -253.487 -275.954 -287.285 -292.051 -293.948 4.56145 422.858 741.417 6.3352 41.4592 41.4412 -1.68308 -26.8134 -21.4533 -11.0219 -19.3405 -28.2144 -29.363 -23.6505 -16.3769 -16.2212 -27.9163 -33.1832 -31.9575 -21.9358 -18.1789 -26.0345 -29.5183 -28.2689 -29.1672 -24.8019 -24.6473 -25.6692 -25.1901 -22.8097 -12.4241 -5.16903 -3.36023 1.06066 13.118 35.6887 55.2892 53.209 36.9843 14.1218 5.83181 13.9231 10.0624 2.45226 -9.70554 -22.8463 -36.6102 -49.57 -62.707 -70.3823 -53.4144 -22.4666 14.9758 26.5169 12.2542 -12.455 -36.6307 -42.973 -32.3188 -24.3144 -23.538 -31.5457 -38.2925 -32.457 -23.4415 -20.7254 -25.1175 -26.3013 -22.9916 -16.2518 -11.2325 -15.0854 -15.461 -17.0052 -28.9091 -45.2843 -47.8477 -42.4705 -42.0233 -48.6317 -61.3962 -65.2452 -62.7207 -65.5556 -74.0077 -85.9636 -97.2977 -101.438 -106.101 -113.83 -125.689 -143.467 -155.62 -157.954 -155.722 -142.624 -119.369 -92.573 -71.187 -63.6221 -78.1942 -100.915 -117.293 -122.747 -124.169 -134.211 -155.895 -179.449 -211.242 -241.101 -254.043 -255.024 -256.087 -259.733 -279.708 -312.76 -329.855 -338.383 -357.239 -301.211 23.5323 589.464 973.934 1057.81 1016.82 929.804 778.421 534.913 15.0153 64.2917 55.6787 -7.80087 -46.8948 -41.9734 -22.7243 -26.1727 -30.0007 -27.8602 -22.7358 -19.3902 -14.7006 -16.7309 -24.4403 -27.2499 -26.3267 -24.4692 -24.9043 -21.2471 -18.9874 -12.4673 -4.01572 -6.25258 -23.6569 -28.0475 -28.3866 -14.3761 4.59761 8.97034 19.1634 30.8915 36.5325 28.7718 15.7276 7.30809 3.07252 12.325 23.1726 19.1791 10.8477 -2.0341 -18.3658 -35.3573 -46.1087 -52.0073 -60.0449 -55.3205 -30.9164 -4.38073 5.36378 -1.96782 -25.1897 -42.3142 -37.5491 -21.5131 -16.7715 -20.236 -33.7157 -45.8784 -45.8995 -44.916 -45.4052 -39.3938 -32.8465 -30.5906 -31.4273 -33.1199 -40.907 -52.8835 -61.7925 -60.8394 -56.6054 -57.3799 -64.5698 -72.4087 -72.5745 -70.8662 -71.5858 -80.6494 -95.1413 -109.828 -116.706 -118.536 -118.782 -124.44 -137.65 -153.791 -157.499 -158.628 -149.839 -138.465 -129.253 -117.154 -112.748 -132.667 -153.363 -160.452 -153.887 -145.91 -149.93 -163.116 -184.658 -223.727 -261.886 -283.402 -290.154 -297.044 -306.208 -327.637 -347.06 -360.726 -369.117 -383.67 -280.16 149.639 767.955 1098.19 1140.05 1066.53 943.356 760.65 501.425 231.572 46.6696 52.3797 -21.733 15.4166 78.1502 48.7226 -20.4306 -52.9884 -52.4694 -35.8047 -29.8945 -35.1814 -30.7769 -21.6089 -15.6258 -14.3505 -8.07239 -8.38932 -13.2426 -16.5875 -18.6777 -19.0378 -15.5293 -15.4037 -12.6942 3.39099 4.79621 -14.1324 -16.004 -18.1677 -14.4765 8.09139 16.8836 27.9354 31.7505 29.6702 17.3213 9.17234 10.9183 16.1969 27.0793 28.6756 21.7586 10.1335 -9.60361 -30.8183 -47.4683 -56.3051 -59.4549 -51.0105 -35.103 -17.5519 -10.2726 -7.36337 -8.70979 -22.7079 -34.4094 -26.8704 -16.0688 -16.9243 -25.4697 -43.303 -58.3735 -65.5932 -68.1006 -69.4652 -70.1467 -67.1034 -62.6044 -62.4673 -60.3752 -58.3855 -61.2577 -68.3328 -71.7156 -74.6856 -78.1116 -82.9913 -87.4299 -88.8928 -90.2004 -89.9267 -84.9506 -84.5852 -95.8561 -108.143 -121.772 -131.965 -134.561 -132.805 -130.396 -134.564 -148.723 -153.861 -156.581 -154.596 -147.649 -143.049 -130.442 -125.141 -148.65 -170.593 -172.896 -163.956 -159.98 -162.4 -171.075 -191.204 -232.505 -278.263 -311.343 -328.468 -345.634 -359.89 -375.927 -376.814 -371.61 -360.531 -314.487 -73.7589 446.561 955.986 1145.51 1098.75 925.647 714.251 494.677 267.683 84.2806 -6.95598 9.76454 37.6374 -5.28545 -18.8564 24.5606 70.0158 16.7181 -38.4144 -54.4388 -57.5626 -43.6261 -35.1369 -41.6791 -29.4984 -26.4595 -21.2069 -11.587 -1.98795 2.34744 1.11897 -2.6798 -5.71332 -7.3389 -9.30276 -13.7691 -20.0411 -7.72121 3.11124 -6.15948 -11.4327 -6.55243 -6.71875 13.5777 26.3053 35.8042 36.7899 31.1154 24.3866 22.2845 28.5994 35.1864 34.9324 25.8471 14.9256 -5.78417 -31.6001 -48.97 -57.9043 -62.2527 -61.6598 -47.1729 -28.175 -23.6656 -28.8224 -26.2136 -21.2934 -16.6995 -17.89 -17.6146 -18.9159 -26.7888 -42.0778 -61.7916 -75.7313 -82.4199 -90.4098 -98.8579 -98.8323 -94.3784 -93.1405 -94.5135 -84.5303 -73.9768 -74.2136 -79.5611 -81.8527 -86.8563 -93.8303 -100.691 -108.663 -111.172 -110.99 -105.919 -96.9072 -99.583 -114.088 -124.42 -134.725 -144.86 -146.785 -148.095 -144.345 -142.271 -150.994 -154.351 -157.123 -159.364 -156.976 -152.67 -142.915 -139.961 -158.949 -173.384 -168.921 -163.577 -167.126 -174.273 -183.168 -204.945 -241.821 -285.601 -323.026 -346.274 -365.422 -378.604 -391.199 -386.2 -363.446 -309.259 -141.913 254.48 767.068 1076.88 1117.59 943.921 617.718 349.695 179.244 51.2071 -27.6811 -53.4722 -3.87132 35.8412 9.22531 -9.79299 -12.9055 28.4326 35.1529 -21.4832 -41.9751 -48.5101 -57.5305 -47.6765 -41.9521 -40.9223 -34.6715 -27.8027 -18.6734 -9.61963 0.40473 1.99516 1.25249 -2.87261 -6.86975 -8.86959 -11.0056 -14.1031 -15.4167 -7.41983 -0.372903 -1.5378 -8.88988 -5.82966 1.45491 16.4124 25.7261 31.4974 29.5156 27.0975 24.9472 23.8114 29.826 32.9255 27.24 15.6733 -1.99731 -30.1453 -50.812 -60.6709 -65.0927 -65.1777 -55.1957 -33.0079 -26.4814 -34.3334 -38.6817 -28.4485 -32.0585 -24.3213 -17.283 -14.9261 -18.765 -36.2936 -68.9643 -91.9099 -105.703 -114.091 -123.049 -127.855 -125.643 -121.446 -116.409 -110.337 -97.097 -85.556 -82.6021 -84.1241 -86.3706 -95.6081 -108.403 -115.374 -119.392 -122.207 -120.853 -110.694 -108.376 -124.025 -135.387 -145.291 -151.664 -153.434 -157.205 -157.329 -156.159 -159.306 -160.548 -161.117 -161.222 -156.994 -158.36 -158.114 -162.291 -174.299 -182.693 -178.672 -177.69 -185.371 -195.959 -206.383 -229.816 -259.222 -289.059 -312.261 -323.112 -330.912 -347.844 -371.781 -377.848 -344.669 -223.106 64.5018 510.082 905.146 1060.13 983.187 680.753 288.936 88.7357 20.0249 -32.0931 -62.8932 -58.1267 17.5004 63.192 -15.4527 -20.3023 1.7343 -14.7105 -50.6434 -49.8973 -51.6452 -61.103 -48.7973 -41.5599 -40.1212 -33.7194 -25.4571 -13.3861 -11.1032 -8.51824 -9.05975 -3.84686 -5.05272 -16.1219 -16.4119 -16.8227 -21.7149 -19.5243 -9.81225 -1.01004 1.79456 -4.46395 -1.13473 18.5597 23.1522 23.6212 26.0239 24.1242 22.0419 17.778 15.4791 18.7905 19.2916 11.958 -1.77078 -23.412 -46.9498 -60.1049 -65.5264 -67.5755 -64.253 -45.5145 -22.8543 -26.9503 -37.8221 -36.5109 -27.535 -31.5092 -24.2298 -10.4475 -56.7646 -76.5732 -90.3288 -109.529 -129.491 -144.398 -143.41 -135.438 -123.933 -109.492 -98.7619 -91.3782 -85.3831 -84.9089 -87.6909 -99.7601 -118.001 -125.427 -120.117 -116.952 -116.294 -109.337 -103.554 -108.645 -119.244 -130.489 -141.703 -148.972 -152.806 -156.664 -157.015 -155.411 -158.595 -163.094 -160.881 -158.337 -157.603 -160.332 -167.806 -179.458 -187.476 -195.316 -196.214 -206.536 -221.257 -236.138 -249.061 -268.797 -286.98 -290.286 -273.689 -235.01 -216.49 -246.719 -292.799 -305.515 -260.537 -106.884 202.3 547.408 778.927 823.023 663.186 334.345 46.5914 -37.0306 -52.2896 -74.8615 -87.718 -62.2429 31.4928 88.2951 -23.2949 -28.2607 -28.3165 -43.6072 -57.8399 -56.9095 -50.7272 -53.5224 -45.0474 -45.6744 -43.7825 -29.8547 -25.8728 -16.1372 -13.0722 -12.5322 -16.8669 -16.1904 -11.4285 -26.711 -26.6182 -25.6206 -26.5397 -22.9029 -15.5117 -3.6102 2.11474 0.661896 7.64622 23.0544 27.3956 25.5755 25.0631 23.2601 16.7408 7.94722 12.0867 13.4709 6.33444 1.34479 -4.09203 -21.4668 -43.2798 -58.2495 -63.5767 -65.3158 -60.8452 -43.1712 -30.032 -35.6962 -39.7758 -34.959 -27.4595 -23.5508 -15.8141 -104.138 -111.602 -100.862 -88.2041 -75.0104 -74.5002 -86.1541 -86.2198 -86.6296 -92.3824 -103.248 -117.449 -123.679 -116.905 -109.909 -107.478 -103.039 -94.5678 -94.2572 -102.972 -112.634 -124.83 -136.104 -145.182 -150.308 -148.209 -149.746 -154.757 -158.696 -155.993 -154.844 -156.73 -161.909 -171.418 -183.632 -196.037 -212.412 -223.068 -240.185 -259.368 -277.759 -293.109 -308.595 -313.039 -281.437 -201.284 -97.9404 -47.3939 -64.2082 -89.4083 -48.3546 19.9232 125.529 289.909 425.902 462.82 402.631 234.936 60.1655 -8.25117 6.26543 -4.40563 -31.1376 -32.6301 11.7209 101.87 135.098 -13.4094 -25.3758 -44.637 -56.0689 -58.7074 -51.5061 -45.7347 -47.968 -52.0966 -43.99 -32.0381 -23.6111 -27.3609 -23.8737 -19.2799 -16.9546 -21.3171 -19.7536 -17.3321 -18.521 -27.2249 -25.9576 -20.6383 -15.6845 -9.48863 1.54826 7.78989 14.7575 22.4148 24.2667 22.2485 19.6878 13.6136 5.00029 4.90496 12.869 11.991 5.04121 5.95573 -5.47963 -24.3111 -38.2758 -46.2552 -54.932 -61.2918 -59.6212 -49.5371 -42.855 -43.5133 -39.3745 -28.8168 -19.4395 -18.1576 -13.558 -92.7516 -95.6051 -99.7615 -95.972 -87.6438 -96.7561 -113.995 -113.3 -106.044 -99.4177 -86.9031 -82.6333 -90.8021 -102.915 -116.121 -124.618 -131.752 -139.051 -137.946 -141.619 -146.784 -147.744 -153.983 -159.013 -165.589 -172.829 -181.96 -199.448 -222.664 -238.041 -257.561 -283.61 -304.551 -321.252 -334.429 -327.213 -263.046 -129.505 27.9691 153.758 240.647 323.715 415.263 423.947 371.318 328.93 319.442 290.986 217.507 105.415 85.4925 181.258 254.003 226.663 170.922 163.55 194.458 233.951 212.055 -17.4242 -34.2759 -47.608 -57.3524 -57.9517 -57.1762 -56.3031 -47.1097 -33.6846 -27.2644 -29.2125 -28.0758 -22.7409 -20.3184 -18.152 -25.4654 -32.7674 -24.4625 -18.4508 -24.2976 -25.2284 -21.3886 -18.1317 -14.0539 0.718747 10.0637 14.414 18.7974 19.3188 15.8243 6.96717 -2.30127 -6.28026 1.17451 7.6929 4.07224 6.80595 3.04153 -20.9365 -40.8881 -53.5612 -45.3991 -46.2773 -54.378 -55.9204 -51.7687 -47.6399 -47.5808 -44.7779 -29.1688 -16.1303 -17.2023 -14.413 -48.6169 -103.079 -111.627 -102.913 -59.3347 -53.6578 -65.5397 -57.8525 -56.5972 -61.2694 -78.1814 -89.216 -98.6499 