# vtk DataFile Version 2.0
3D Data
ASCII
DATASET UNSTRUCTURED_GRID
POINTS 8110 double 
840000 2.15393e+06 -10000
850000 2.15393e+06 -10000
860000 2.15393e+06 -10000
870000 2.15393e+06 -10000
880000 2.15393e+06 -10000
890000 2.15393e+06 -10000
900000 2.15393e+06 -10000
910000 2.15393e+06 -10000
920000 2.15393e+06 -10000
930000 2.15393e+06 -10000
940000 2.15393e+06 -10000
950000 2.15393e+06 -10000
960000 2.15393e+06 -10000
970000 2.15393e+06 -10000
980000 2.15393e+06 -10000
990000 2.15393e+06 -10000
1e+06 2.15393e+06 -10000
1.01e+06 2.15393e+06 -10000
1.02e+06 2.15393e+06 -10000
1.03e+06 2.15393e+06 -10000
1.04e+06 2.15393e+06 -10000
1.05e+06 2.15393e+06 -10000
1.06e+06 2.15393e+06 -10000
1.07e+06 2.15393e+06 -10000
1.08e+06 2.15393e+06 -10000
1.09e+06 2.15393e+06 -10000
1.1e+06 2.15393e+06 -10000
1.11e+06 2.15393e+06 -10000
1.12e+06 2.15393e+06 -10000
1.13e+06 2.15393e+06 -10000
1.14e+06 2.15393e+06 -10000
1.15e+06 2.15393e+06 -10000
1.16e+06 2.15393e+06 -10000
1.17e+06 2.15393e+06 -10000
1.18e+06 2.15393e+06 -10000
1.19e+06 2.15393e+06 -10000
1.2e+06 2.15393e+06 -10000
1.21e+06 2.15393e+06 -10000
1.22e+06 2.15393e+06 -10000
1.23e+06 2.15393e+06 -10000
1.24e+06 2.15393e+06 -10000
1.25e+06 2.15393e+06 -10000
1.26e+06 2.15393e+06 -10000
1.27e+06 2.15393e+06 -10000
1.28e+06 2.15393e+06 -10000
1.29e+06 2.15393e+06 -10000
1.3e+06 2.15393e+06 -10000
1.31e+06 2.15393e+06 -10000
1.32e+06 2.15393e+06 -10000
1.33e+06 2.15393e+06 -10000
1.37e+06 2.15393e+06 -10000
1.38e+06 2.15393e+06 -10000
1.39e+06 2.15393e+06 -10000
1.4e+06 2.15393e+06 -10000
1.41e+06 2.15393e+06 -10000
1.42e+06 2.15393e+06 -10000
1.43e+06 2.15393e+06 -10000
1.44e+06 2.15393e+06 -10000
1.45e+06 2.15393e+06 -10000
1.46e+06 2.15393e+06 -10000
1.47e+06 2.15393e+06 -10000
1.48e+06 2.15393e+06 -10000
1.49e+06 2.15393e+06 -10000
1.5e+06 2.15393e+06 -10000
1.51e+06 2.15393e+06 -10000
1.52e+06 2.15393e+06 -10000
1.53e+06 2.15393e+06 -10000
1.54e+06 2.15393e+06 -10000
1.55e+06 2.15393e+06 -10000
1.56e+06 2.15393e+06 -10000
1.57e+06 2.15393e+06 -10000
1.58e+06 2.15393e+06 -10000
1.59e+06 2.15393e+06 -10000
1.6e+06 2.15393e+06 -10000
1.61e+06 2.15393e+06 -10000
1.62e+06 2.15393e+06 -10000
1.63e+06 2.15393e+06 -10000
1.64e+06 2.15393e+06 -10000
1.65e+06 2.15393e+06 -10000
1.66e+06 2.15393e+06 -10000
1.67e+06 2.15393e+06 -10000
1.68e+06 2.15393e+06 -10000
1.69e+06 2.15393e+06 -10000
1.7e+06 2.15393e+06 -10000
1.71e+06 2.15393e+06 -10000
1.72e+06 2.15393e+06 -10000
1.73e+06 2.15393e+06 -10000
1.74e+06 2.15393e+06 -10000
1.75e+06 2.15393e+06 -10000
1.96e+06 2.15393e+06 -10000
1.97e+06 2.15393e+06 -10000
1.98e+06 2.15393e+06 -10000
1.99e+06 2.15393e+06 -10000
840000 2.16393e+06 -10000
850000 2.16393e+06 -10000
860000 2.16393e+06 -10000
870000 2.16393e+06 -10000
880000 2.16393e+06 -10000
890000 2.16393e+06 -10000
900000 2.16393e+06 -10000
910000 2.16393e+06 -10000
920000 2.16393e+06 -10000
930000 2.16393e+06 -10000
940000 2.16393e+06 -10000
950000 2.16393e+06 -10000
960000 2.16393e+06 -10000
970000 2.16393e+06 -10000
980000 2.16393e+06 -10000
990000 2.16393e+06 -10000
1e+06 2.16393e+06 -10000
1.01e+06 2.16393e+06 -10000
1.02e+06 2.16393e+06 -10000
1.03e+06 2.16393e+06 -10000
1.04e+06 2.16393e+06 -10000
1.05e+06 2.16393e+06 -10000
1.06e+06 2.16393e+06 -10000
1.07e+06 2.16393e+06 -10000
1.08e+06 2.16393e+06 -10000
1.09e+06 2.16393e+06 -10000
1.1e+06 2.16393e+06 -10000
1.11e+06 2.16393e+06 -10000
1.12e+06 2.16393e+06 -10000
1.13e+06 2.16393e+06 -10000
1.14e+06 2.16393e+06 -10000
1.15e+06 2.16393e+06 -10000
1.16e+06 2.16393e+06 -10000
1.17e+06 2.16393e+06 -10000
1.18e+06 2.16393e+06 -10000
1.19e+06 2.16393e+06 -10000
1.2e+06 2.16393e+06 -10000
1.21e+06 2.16393e+06 -10000
1.22e+06 2.16393e+06 -10000
1.23e+06 2.16393e+06 -10000
1.24e+06 2.16393e+06 -10000
1.25e+06 2.16393e+06 -10000
1.26e+06 2.16393e+06 -10000
1.27e+06 2.16393e+06 -10000
1.28e+06 2.16393e+06 -10000
1.29e+06 2.16393e+06 -10000
1.3e+06 2.16393e+06 -10000
1.31e+06 2.16393e+06 -10000
1.32e+06 2.16393e+06 -10000
1.33e+06 2.16393e+06 -10000
1.34e+06 2.16393e+06 -10000
1.35e+06 2.16393e+06 -10000
1.36e+06 2.16393e+06 -10000
1.37e+06 2.16393e+06 -10000
1.38e+06 2.16393e+06 -10000
1.39e+06 2.16393e+06 -10000
1.4e+06 2.16393e+06 -10000
1.41e+06 2.16393e+06 -10000
1.42e+06 2.16393e+06 -10000
1.43e+06 2.16393e+06 -10000
1.44e+06 2.16393e+06 -10000
1.45e+06 2.16393e+06 -10000
1.46e+06 2.16393e+06 -10000
1.47e+06 2.16393e+06 -10000
1.48e+06 2.16393e+06 -10000
1.49e+06 2.16393e+06 -10000
1.5e+06 2.16393e+06 -10000
1.51e+06 2.16393e+06 -10000
1.52e+06 2.16393e+06 -10000
1.53e+06 2.16393e+06 -10000
1.54e+06 2.16393e+06 -10000
1.55e+06 2.16393e+06 -10000
1.56e+06 2.16393e+06 -10000
1.57e+06 2.16393e+06 -10000
1.58e+06 2.16393e+06 -10000
1.59e+06 2.16393e+06 -10000
1.6e+06 2.16393e+06 -10000
1.61e+06 2.16393e+06 -10000
1.62e+06 2.16393e+06 -10000
1.63e+06 2.16393e+06 -10000
1.64e+06 2.16393e+06 -10000
1.65e+06 2.16393e+06 -10000
1.66e+06 2.16393e+06 -10000
1.67e+06 2.16393e+06 -10000
1.68e+06 2.16393e+06 -10000
1.69e+06 2.16393e+06 -10000
1.7e+06 2.16393e+06 -10000
1.71e+06 2.16393e+06 -10000
1.72e+06 2.16393e+06 -10000
1.73e+06 2.16393e+06 -10000
1.74e+06 2.16393e+06 -10000
1.75e+06 2.16393e+06 -10000
1.76e+06 2.16393e+06 -10000
1.95e+06 2.16393e+06 -10000
1.96e+06 2.16393e+06 -10000
1.97e+06 2.16393e+06 -10000
1.98e+06 2.16393e+06 -10000
1.99e+06 2.16393e+06 -10000
2e+06 2.16393e+06 -10000
840000 2.17393e+06 -10000
850000 2.17393e+06 -10000
860000 2.17393e+06 -10000
870000 2.17393e+06 -10000
880000 2.17393e+06 -10000
890000 2.17393e+06 -10000
900000 2.17393e+06 -10000
910000 2.17393e+06 -10000
920000 2.17393e+06 -10000
930000 2.17393e+06 -10000
940000 2.17393e+06 -10000
950000 2.17393e+06 -10000
960000 2.17393e+06 -10000
970000 2.17393e+06 -10000
980000 2.17393e+06 -10000
990000 2.17393e+06 -10000
1e+06 2.17393e+06 -10000
1.01e+06 2.17393e+06 -10000
1.02e+06 2.17393e+06 -10000
1.03e+06 2.17393e+06 -10000
1.04e+06 2.17393e+06 -10000
1.05e+06 2.17393e+06 -10000
1.06e+06 2.17393e+06 -10000
1.07e+06 2.17393e+06 -10000
1.08e+06 2.17393e+06 -10000
1.09e+06 2.17393e+06 -10000
1.1e+06 2.17393e+06 -10000
1.11e+06 2.17393e+06 -10000
1.12e+06 2.17393e+06 -10000
1.13e+06 2.17393e+06 -10000
1.14e+06 2.17393e+06 -10000
1.15e+06 2.17393e+06 -10000
1.16e+06 2.17393e+06 -10000
1.17e+06 2.17393e+06 -10000
1.18e+06 2.17393e+06 -10000
1.19e+06 2.17393e+06 -10000
1.2e+06 2.17393e+06 -10000
1.21e+06 2.17393e+06 -10000
1.22e+06 2.17393e+06 -10000
1.23e+06 2.17393e+06 -10000
1.24e+06 2.17393e+06 -10000
1.25e+06 2.17393e+06 -10000
1.26e+06 2.17393e+06 -10000
1.27e+06 2.17393e+06 -10000
1.28e+06 2.17393e+06 -10000
1.29e+06 2.17393e+06 -10000
1.3e+06 2.17393e+06 -10000
1.31e+06 2.17393e+06 -10000
1.32e+06 2.17393e+06 -10000
1.33e+06 2.17393e+06 -10000
1.34e+06 2.17393e+06 -10000
1.35e+06 2.17393e+06 -10000
1.36e+06 2.17393e+06 -10000
1.37e+06 2.17393e+06 -10000
1.38e+06 2.17393e+06 -10000
1.39e+06 2.17393e+06 -10000
1.4e+06 2.17393e+06 -10000
1.41e+06 2.17393e+06 -10000
1.42e+06 2.17393e+06 -10000
1.43e+06 2.17393e+06 -10000
1.44e+06 2.17393e+06 -10000
1.45e+06 2.17393e+06 -10000
1.46e+06 2.17393e+06 -10000
1.47e+06 2.17393e+06 -10000
1.48e+06 2.17393e+06 -10000
1.49e+06 2.17393e+06 -10000
1.5e+06 2.17393e+06 -10000
1.51e+06 2.17393e+06 -10000
1.52e+06 2.17393e+06 -10000
1.53e+06 2.17393e+06 -10000
1.54e+06 2.17393e+06 -10000
1.55e+06 2.17393e+06 -10000
1.56e+06 2.17393e+06 -10000
1.57e+06 2.17393e+06 -10000
1.58e+06 2.17393e+06 -10000
1.59e+06 2.17393e+06 -10000
1.6e+06 2.17393e+06 -10000
1.61e+06 2.17393e+06 -10000
1.62e+06 2.17393e+06 -10000
1.63e+06 2.17393e+06 -10000
1.64e+06 2.17393e+06 -10000
1.65e+06 2.17393e+06 -10000
1.66e+06 2.17393e+06 -10000
1.67e+06 2.17393e+06 -10000
1.68e+06 2.17393e+06 -10000
1.69e+06 2.17393e+06 -10000
1.7e+06 2.17393e+06 -10000
1.71e+06 2.17393e+06 -10000
1.72e+06 2.17393e+06 -10000
1.73e+06 2.17393e+06 -10000
1.74e+06 2.17393e+06 -10000
1.75e+06 2.17393e+06 -10000
1.76e+06 2.17393e+06 -10000
1.94e+06 2.17393e+06 -10000
1.95e+06 2.17393e+06 -10000
1.96e+06 2.17393e+06 -10000
1.97e+06 2.17393e+06 -10000
1.98e+06 2.17393e+06 -10000
1.99e+06 2.17393e+06 -10000
2e+06 2.17393e+06 -10000
2.01e+06 2.17393e+06 -10000
840000 2.18393e+06 -10000
850000 2.18393e+06 -10000
860000 2.18393e+06 -10000
870000 2.18393e+06 -10000
880000 2.18393e+06 -10000
890000 2.18393e+06 -10000
900000 2.18393e+06 -10000
910000 2.18393e+06 -10000
920000 2.18393e+06 -10000
930000 2.18393e+06 -10000
940000 2.18393e+06 -10000
950000 2.18393e+06 -10000
960000 2.18393e+06 -10000
970000 2.18393e+06 -10000
980000 2.18393e+06 -10000
990000 2.18393e+06 -10000
1e+06 2.18393e+06 -10000
1.01e+06 2.18393e+06 -10000
1.02e+06 2.18393e+06 -10000
1.03e+06 2.18393e+06 -10000
1.04e+06 2.18393e+06 -10000
1.05e+06 2.18393e+06 -10000
1.06e+06 2.18393e+06 -10000
1.07e+06 2.18393e+06 -10000
1.08e+06 2.18393e+06 -10000
1.09e+06 2.18393e+06 -10000
1.1e+06 2.18393e+06 -10000
1.11e+06 2.18393e+06 -10000
1.12e+06 2.18393e+06 -10000
1.13e+06 2.18393e+06 -10000
1.14e+06 2.18393e+06 -10000
1.15e+06 2.18393e+06 -10000
1.16e+06 2.18393e+06 -10000
1.17e+06 2.18393e+06 -10000
1.18e+06 2.18393e+06 -10000
1.19e+06 2.18393e+06 -10000
1.2e+06 2.18393e+06 -10000
1.21e+06 2.18393e+06 -10000
1.22e+06 2.18393e+06 -10000
1.23e+06 2.18393e+06 -10000
1.24e+06 2.18393e+06 -10000
1.25e+06 2.18393e+06 -10000
1.26e+06 2.18393e+06 -10000
1.27e+06 2.18393e+06 -10000
1.28e+06 2.18393e+06 -10000
1.29e+06 2.18393e+06 -10000
1.3e+06 2.18393e+06 -10000
1.31e+06 2.18393e+06 -10000
1.32e+06 2.18393e+06 -10000
1.33e+06 2.18393e+06 -10000
1.34e+06 2.18393e+06 -10000
1.35e+06 2.18393e+06 -10000
1.36e+06 2.18393e+06 -10000
1.37e+06 2.18393e+06 -10000
1.38e+06 2.18393e+06 -10000
1.39e+06 2.18393e+06 -10000
1.4e+06 2.18393e+06 -10000
1.41e+06 2.18393e+06 -10000
1.42e+06 2.18393e+06 -10000
1.43e+06 2.18393e+06 -10000
1.44e+06 2.18393e+06 -10000
1.45e+06 2.18393e+06 -10000
1.46e+06 2.18393e+06 -10000
1.47e+06 2.18393e+06 -10000
1.48e+06 2.18393e+06 -10000
1.49e+06 2.18393e+06 -10000
1.5e+06 2.18393e+06 -10000
[...]
POINT_DATA 8110
SCALARS grav_accel double
LOOKUP_TABLE default
-7.81459e-06 6.63263e-05 0.000124 0.000163546 0.000158945 0.000135651 0.000123932 0.000112595 0.000114299 0.000125894 0.000127204 0.000104487 7.11847e-05 3.76143e-05 1.47382e-05 8.82459e-06 4.49033e-06 -1.65044e-05 -4.75537e-05 -6.55723e-05 -9.24948e-05 -0.000147485 -0.000212411 -0.000218597 -8.72017e-05 8.34819e-05 0.000189352 0.000260446 0.000341363 0.000490555 0.00067368 0.000809993 0.00086268 0.000853742 0.000823436 0.000805397 0.000832685 0.000878626 0.000922494 0.00100745 0.00104657 0.0010204 0.000959987 0.000877638 0.000798386 0.000721666 0.000622013 0.000497678 0.000369173 0.00025452 -0.000127866 -0.00022914 -0.000262065 -0.000244161 -0.000208192 -0.000192505 -0.000211362 -0.000239279 -0.000264431 -0.000279864 -0.000257703 -0.00016704 -4.47496e-05 9.07941e-05 0.000224709 0.000292835 0.000249796 0.000137446 3.3107e-05 -3.60457e-05 -6.25408e-05 -5.7593e-05 -2.26362e-05 1.19365e-05 5.10119e-05 9.77468e-05 0.000170844 0.000188456 0.000140527 0.00010065 0.000105373 0.000155718 0.000209729 0.000246796 0.000264486 0.000266609 0.000261433 0.000253041 0.000241455 -0.000387391 -0.000390244 -0.000384144 -0.000374778 6.46315e-05 0.000152323 0.000204416 0.000225881 0.000193537 0.000147697 0.000121382 0.000101077 9.80526e-05 0.000104808 0.000102924 8.22083e-05 5.4753e-05 2.11796e-05 2.3465e-07 -3.65848e-06 -4.12456e-06 -1.66785e-05 -3.03574e-05 -3.13192e-05 -3.66518e-05 -6.23728e-05 -0.000100727 -9.70164e-05 1.1943e-05 0.000158541 0.000247936 0.000265886 0.000281321 0.000404008 0.000584254 0.000733483 0.000814136 0.00083781 0.000827536 0.000822499 0.00085809 0.000909596 0.00100774 0.00116925 0.00121717 0.00115289 0.00103512 0.000920587 0.000832343 0.00075027 0.000635964 0.000500203 0.000374306 0.000267455 0.000172338 7.9376e-05 -1.04717e-05 -0.000114882 -0.000245685 -0.000303723 -0.000292987 -0.000271019 -0.000252537 -0.000250978 -0.00026313 -0.000281241 -0.000300978 -0.000304046 -0.000270581 -0.000206224 -0.000118692 -1.06932e-05 6.34835e-05 4.70124e-05 -1.69251e-05 -7.39701e-05 -0.000108237 -0.000123785 -0.000121311 -0.00010129 -7.39781e-05 -3.87706e-05 2.17011e-05 0.000133366 0.00020333 0.000194241 0.000179153 0.000199968 0.000253664 0.000287757 0.000297324 0.000296305 0.000294256 0.000289591 0.000278838 0.000264318 0.000246848 -0.000367892 -0.000372096 -0.000368719 -0.00035915 -0.000344869 -0.00032836 8.58365e-05 0.000187571 0.000229568 0.000234261 0.000190949 0.000138862 0.000107208 8.83576e-05 8.53899e-05 8.69416e-05 8.09875e-05 6.39611e-05 3.54889e-05 -4.6796e-06 -2.23511e-05 -1.80162e-05 -1.51886e-05 -2.6657e-05 -2.36191e-05 1.00818e-05 4.44565e-05 6.44934e-05 6.42469e-05 7.37195e-05 0.000151376 0.000266625 0.000334034 0.000300872 0.000265696 0.000375202 0.000546321 0.000692434 0.00078788 0.000839097 0.000868529 0.000916199 0.00100335 0.00109029 0.00121963 0.00136623 0.00134398 0.00120945 0.0010397 0.000903915 0.000798256 0.000703979 0.000593775 0.000465838 0.000351453 0.000254696 0.000168802 8.212e-05 -4.80479e-06 -0.000112988 -0.000258458 -0.000333723 -0.000331399 -0.00031115 -0.000290402 -0.000279949 -0.00028725 -0.000301438 -0.000326798 -0.000352605 -0.000361904 -0.000353429 -0.000323509 -0.000250198 -0.000174311 -0.000145355 -0.000146612 -0.00015282 -0.000155552 -0.000156824 -0.000153367 -0.000141343 -0.000120891 -8.58213e-05 -1.19234e-05 0.000131326 0.000235085 0.000242929 0.000244345 0.000278567 0.000325918 0.000341645 0.000334002 0.000322584 0.000317017 0.00031038 0.000295872 0.000277609 0.000257159 -0.000347523 -0.000356069 -0.000357066 -0.000351092 -0.000339103 -0.000320777 -0.000298753 -0.000276399 8.65487e-05 0.000191922 0.000219206 0.000211932 0.00016805 0.000118843 9.01701e-05 7.90038e-05 7.76211e-05 7.30499e-05 5.95675e-05 3.65479e-05 -6.09111e-06 -5.40476e-05 -6.34558e-05 -4.85176e-05 -3.99688e-05 -4.49364e-05 -2.39232e-05 5.572e-05 0.000139079 0.000189479 0.000209288 0.000228096 0.000284098 0.0003677 0.000419372 0.000387926 0.000362889 0.000443834 0.000569754 0.000690995 0.000787478 0.000856885 0.000932431 0.00103272 0.00115309 0.00125041 0.00134652 0.00141044 0.00133836 0.00118746 0.00100445 0.000846172 0.000706631 0.000593379 0.000492156 0.000385647 0.000294023 0.000207725 0.000126862 5.05593e-05 -2.8777e-05 -0.000134796 -0.000285051 -0.000368427 -0.000370073 -0.000347643 -0.000317967 -0.000292085 -0.000295622 -0.000309675 -0.000344976 -0.000393427 -0.000438859 -0.000477267 -0.000489225 -0.000435161 -0.00035105 -0.000279469 -0.000232148 -0.000203974 -0.000187767 -0.00018086 -0.000176594 -0.000168982 -0.000152811 -0.000118341 -4.02378e-05 0.000105507 0.000207617 0.000225444 0.000239177 0.000279366 0.000313447 0.000322477 0.000311129 0.000295449 0.000292715 0.000294883 0.000281843 0.00026269 0.000246454 0.000238225 -0.000318399 -0.000334278 -0.000343132 -0.000344095 -0.000336567 -0.000322063 -0.000299461 -0.000271791 -0.000243149 -0.000209915 9.05214e-05 0.000185708 0.000200367 0.000187223 0.000150304 0.000114197 9.54707e-05 8.92585e-05 8.3602e-05 7.0045e-05 4.8532e-05 1.29146e-05 -4.65107e-05 -0.000103023 -0.000102874 -7.13453e-05 -4.83879e-05 -4.44714e-05 -2.3599e-05 7.81315e-05 0.000195182 0.000244936 0.000253443 0.000286032 0.000351327 0.000426813 0.000464261 0.000439053 0.00043069 0.000483466 0.000555516 0.000640616 0.000721935 0.000803231 0.000914828 0.00102518 0.00111611 0.00119692 0.00125179 0.00125836 0.00119466 0.00106352 0.000874394 0.000708792 0.000558291 0.000437174 0.000346501 0.000252156 0.000176705 9.41675e-05 1.43994e-05 -3.90332e-05 -0.000106421 -0.000204686 -0.000325715 -0.000387565 -0.000382373 -0.000360632 -0.000326674 -0.000285908 -0.000286184 -0.00030966 -0.000354124 -0.000411219 -0.000469481 -0.000525317 -0.000543181 -0.000502409 -0.00042011 -0.000330741 -0.000264848 -0.00022588 -0.000205184 -0.000199006 -0.000198207 -0.000196445 -0.000182095 -0.000150931 -8.37308e-05 2.85466e-05 0.000101488 0.000127354 0.000140629 0.000178803 0.000199174 0.00020574 0.0001937 0.00017841 0.000183528 0.000203179 0.000198304 0.0001876 0.000182587 0.000194284 -0.000280017 -0.000302443 -0.00031858 -0.00032929 -0.000331185 -0.000321945 -0.00030359 -0.00027666 -0.000243281 -0.000208383 -0.000163166 -8.30067e-05 8.6726e-05 0.00015795 0.000167491 0.000157308 0.000146102 0.000143267 0.000141983 0.000137259 0.000121776 9.58689e-05 6.20192e-05 1.04864e-05 -5.25932e-05 -0.000117078 -0.000120303 -6.75012e-05 -3.01349e-05 -2.26644e-05 -1.44084e-06 7.93014e-05 0.000172393 0.000207678 0.000204759 0.000234731 0.0003078 0.000382748 0.000405442 0.000380747 0.000383822 0.000426563 0.000455855 0.000501461 0.00056576 0.000648579 0.000758194 0.000840736 0.000878252 0.000931261 0.000968935 0.000957551 0.000905865 0.000797771 0.000629582 0.000488761 0.000359708 0.000239822 0.000143971 5.35616e-05 -1.80609e-05 -9.06711e-05 -0.000160415 -0.000189273 -0.000226158 -0.00028883 -0.000344839 -0.000353484 -0.000340788 -0.000328121 -0.00030388 -0.000283308 -0.000294697 -0.000327464 -0.000360245 -0.000401473 -0.000446158 -0.000472608 -0.000477249 -0.000465166 -0.000415694 -0.000346215 -0.000281711 -0.000239473 -0.000219129 -0.000218015 -0.00022605 -0.000229886 -0.000215981 -0.00018304 -0.000133121 -7.11932e-05 -3.28244e-05 -1.4139e-05 -4.80716e-06 1.49749e-05 2.31966e-05 2.99153e-05 2.60688e-05 1.84428e-05 2.95305e-05 5.75939e-05 7.23991e-05 8.183e-05 9.45141e-05 0.000130814 0.000210831 -0.00025991 -0.000282076 -0.000299692 -0.000312233 -0.000315164 -0.000305467 -0.000283746 -0.000250446 -0.00020917 -0.000170459 -0.000118708 -1.59622e-05 6.20258e-05 0.000109579 0.000120954 0.00012355 0.000147282 0.000184171 0.000203553 0.000202365 0.000181169 0.000148328 0.00011037 5.918e-05 1.47982e-05 -4.09812e-05 -7.86346e-05 -4.404e-05 -1.28714e-05 -8.76491e-06 1.23961e-05 5.87384e-05 0.000100803 0.0001167 0.000123188 0.000155162 0.000219072 0.000281214 0.000303375 0.000292733 0.000298866 0.000328467 0.000333947 0.000348348 0.000393984 0.000465501 0.000538028 0.00057657 0.000582194 0.000616593 0.000645522 0.000623219 0.000561859 0.000476918 0.000366154 0.000259118 0.000150977 3.92209e-05 -5.44465e-05 -0.000119839 -0.000180206 -0.000241825 -0.000277684 -0.000290963 -0.000309528 -0.000342227 -0.000340378 -0.00030482 -0.000270781 -0.000259125 -0.000255078 -0.000265846 -0.000290553 -0.000327547 -0.000351342 -0.000370316 -0.000383023 -0.00038094 -0.00037429 -0.000394777 -0.000409535 -0.000383001 -0.000322732 -0.000272993 -0.000249477 -0.000249444 -0.000261771 -0.000268257 -0.000242923 -0.000200575 -0.000159398 -0.000128002 -0.000110999 -0.000103685 -0.000105444 -0.000114344 -0.000125516 -0.000126211 -0.000122922 -0.000118849 -9.62102e-05 -5.87619e-05 -2.24147e-05 8.86098e-06 3.97073e-05 9.1199e-05 -0.000235194 -0.000258425 -0.000278816 -0.000294287 -0.000300069 -0.000292463 -0.000266289 -0.000221051 -0.00016928 -0.000133359 -8.59337e-05 2.01581e-05 2.42736e-05 6.5539e-05 7.97442e-05 9.56914e-05 0.000147114 0.000214701 0.000251221 0.000252256 0.000228685 0.000204757 0.00019299 0.000174815 0.000153893 9.71946e-05 -2.02903e-05 -7.86048e-05 -7.06562e-05 -4.5408e-05 -9.4292e-06 1.97529e-05 2.49633e-05 1.96719e-05 3.38717e-05 7.68848e-05 0.000135924 0.000189273 0.000219475 0.00022751 0.000228191 0.00022903 0.000216371 0.000215504 0.000242584 0.000285153 0.000321307 0.000340082 0.000347452 0.000373524 0.000378239 0.000321898 0.000244216 0.000185424 0.000123725 5.0803e-05 -2.37895e-05 -0.000100398 -0.000162346 -0.000204638 -0.000255973 -0.000301969 -0.00031668 -0.000321076 -0.000329586 -0.000335206 -0.000319747 -0.000262878 -0.000208875 -0.000199913 -0.000212808 -0.000243733 -0.000282805 -0.000317397 -0.000331327 -0.000329364 -0.000326517 -0.000313656 -0.000311506 -0.000342688 -0.000387461 -0.000411473 -0.000382013 -0.000332335 -0.000300987 -0.000292405 -0.000294423 -0.000282326 -0.000240508 -0.000191334 -0.000150604 -0.000126273 -0.000116329 -0.000119241 -0.000133424 -0.000165279 -0.000205828 -0.000226709 -0.000226912 -0.000215367 -0.000173643 -0.000118932 -6.67063e-05 -2.01538e-05 2.3243e-05 -0.000208492 -0.000232595 -0.000256926 -0.000278693 -0.000291064 -0.000284992 -0.000252069 -0.000193484 -0.000136995 -0.000115299 -8.07938e-05 1.86647e-05 0.000115688 -1.46871e-05 3.47519e-05 5.04288e-05 7.29312e-05 0.00014223 0.000230082 0.000277024 0.000272846 0.000243191 0.000250709 0.000269593 0.00026856 0.000244152 0.000152896 -3.25045e-05 -0.000148956 -0.000148732 -0.000106523 -6.10285e-05 -3.79331e-05 -5.01674e-05 -7.10542e-05 -5.52767e-05 -9.06696e-06 4.41931e-05 9.18396e-05 0.000125803 0.000145132 0.000134831 0.000102268 7.2264e-05 6.39711e-05 7.23735e-05 8.23589e-05 0.000106863 0.000149166 0.000186461 0.000209197 0.000176472 7.48202e-05 -1.01028e-05 -4.88858e-05 -9.23853e-05 -0.000137197 -0.000160746 -0.000188461 -0.000218096 -0.000246214 -0.000280499 -0.000313271 -0.000313555 -0.000305299 -0.000307892 -0.000308145 -0.000291714 -0.000229532 -0.000177078 -0.000165611 -0.00018336 -0.000231961 -0.000274598 -0.000301809 -0.000307404 -0.000289305 -0.000271398 -0.000270758 -0.000292788 -0.000345025 -0.000403289 -0.000456171 -0.000448147 -0.000395191 -0.000345505 -0.000316199 -0.000287763 -0.000237581 -0.000184336 -0.000151997 -0.000130817 -0.000112215 -0.000101464 -0.000106535 -0.000124765 -0.000168927 -0.000230391 -0.000272896 -0.000283556 -0.00026578 -0.000199144 -0.000130086 -7.23033e-05 -2.03117e-05 2.71022e-05 8.34931e-05 0.000180736 0.000272094 0.000288568 -0.000180401 -0.000203846 -0.000231146 -0.000259815 -0.000281122 -0.000280353 -0.000249104 -0.000192597 -0.000149569 -0.000145889 -0.000122723 -3.63403e-05 4.34447e-05 8.58388e-05 -4.69721e-05 1.54371e-05 3.80566e-05 5.81841e-05 0.000128877 0.000219571 0.000269759 0.00026838 0.000240331 0.000273663 0.000305346 0.000293157 0.000239498 0.000121066 -5.71106e-05 -0.000152576 -0.000160085 -0.000150485 -0.000124416 -0.000103577 -0.000107566 -0.000136687 -0.000132217 -9.89691e-05 -6.64584e-05 -3.69293e-05 -1.48619e-05 -7.1994e-07 -2.03407e-05 -7.35169e-05 -0.000107313 -0.000113017 -0.000114182 -0.000119814 -8.98964e-05 -1.19093e-05 5.88247e-05 7.93214e-05 1.51302e-05 -0.000121518 -0.000215386 -0.000248195 -0.000270839 -0.000280587 -0.000250709 -0.000241241 -0.000248201 -0.000262884 -0.00028411 -0.00029639 -0.000291376 -0.000287343 -0.000300114 -0.000306411 -0.000278966 -0.000193715 -0.000126678 -0.000127361 -0.000161945 -0.000215406 -0.000255723 -0.000263654 -0.000253373 -0.00022063 -0.000204233 -0.000235792 -0.000308189 -0.000405506 -0.000497351 -0.000553951 -0.000527722 -0.000439127 -0.000347817 -0.000283282 -0.000227242 -0.000164382 -0.000121273 -0.000113452 -0.000109668 -0.000100022 -9.09825e-05 -9.36371e-05 -0.000113521 -0.000159597 -0.00020872 -0.000249891 -0.000269021 -0.000249012 -0.000168889 -0.000101305 -5.12071e-05 -3.24168e-06 4.11928e-05 8.52667e-05 0.00014522 0.000199348 0.000207302 0.000204695 0.000159201 5.2258e-05 -3.88674e-05 -8.32778e-05 -0.000151862 -0.000172017 -0.000198896 -0.00023201 -0.000264795 -0.000283511 -0.000275184 -0.000242964 -0.000224063 -0.000228609 -0.000209465 -0.000143625 -7.75454e-05 -2.74974e-05 -7.41722e-05 -1.84421e-06 3.86391e-05 6.47558e-05 0.000114204 0.000173028 0.000208151 0.000214694 0.000201614 0.000220382 0.00025243 0.000236495 0.00015938 5.1752e-05 -5.51629e-05 -0.000108044 -0.0001406 -0.000178019 -0.000188571 -0.000175681 -0.00014705 -0.000166925 -0.00018502 -0.000166603 -0.000162561 -0.00017057 -0.000177011 -0.000187135 -0.000220815 -0.000264658 -0.000278102 -0.000268193 -0.000258828 -0.000256346 -0.000218904 -0.000118864 -2.99607e-05 -9.05521e-06 -7.96608e-05 -0.000220081 -0.000317277 -0.000328864 -0.000325736 -0.000332499 -0.000308517 -0.000284216 -0.00027859 -0.000280189 -0.000275406 -0.000270096 -0.000280597 -0.00029621 -0.000326768 -0.00034247 -0.000302164 -0.000185303 -7.10784e-05 -9.15247e-05 -0.000156232 -0.000195715 -0.00019747 -0.000199398 -0.000185008 -0.000142697 -0.000130924 -0.000203148 -0.000330711 -0.000478944 -0.000597373 -0.000654585 -0.000593328 -0.000444054 -0.00029275 -0.0001937 -0.000146172 -0.000116694 -0.000104012 -0.000102993 -9.2098e-05 -8.32697e-05 -7.71934e-05 -8.59174e-05 -0.000115692 -0.000151883 -0.000174136 -0.000193767 -0.000205036 -0.000185942 -0.000119273 -6.39797e-05 -2.32273e-05 1.95344e-05 5.92772e-05 8.909e-05 0.000110532 0.000125071 0.000119126 0.000107415 7.16031e-05 7.94331e-06 -4.50481e-05 -7.59896e-05 -9.10376e-05 -9.72269e-05 -0.000100212 -0.000104464 -0.000110579 -0.000117337 -0.000126402 -0.00014118 -0.000164518 -0.00020152 -0.000251332 -0.000300127 -0.000328765 -0.000328078 -0.000325844 -0.000327546 -0.000308178 -0.000250015 -0.000177601 -0.00011267 -5.58844e-05 1.26324e-05 0.000134772 0.000254527 -0.000102796 -2.40449e-05 3.34804e-05 7.89494e-05 9.86467e-05 0.000105507 0.000110311 0.000107168 0.000102723 0.00012145 0.000147965 0.000130092 6.12087e-05 -7.70175e-06 -5.10768e-05 -7.80457e-05 -0.000106335 -0.000126003 -0.000148352 -0.000157672 -0.000160796 -0.000207767 -0.000233011 -0.000198295 -0.000212777 -0.000276229 -0.000311891 -0.000332295 -0.000363411 -0.000383075 -0.00038213 -0.000361021 -0.000321613 -0.000291175 -0.000236453 -0.000137545 -6.4474e-05 -5.79716e-05 -0.000127444 -0.000246245 -0.000310648 -0.000301871 -0.000295075 -0.000331493 -0.00034131 -0.000307823 -0.000283728 -0.000275957 -0.000255617 -0.000241065 -0.000258549 -0.000311405 -0.000337291 -0.000338674 -0.000289271 -0.000174131 -7.04105e-05 -0.000100871 -0.000165417 -0.000170139 -0.000153165 -0.00013957 -0.000125417 -9.9384e-05 -0.000103786 -0.000175983 -0.000300192 -0.000455091 -0.000607127 -0.000696084 -0.00060732 -0.00040209 -0.000204302 -8.63243e-05 -6.43682e-05 -7.74347e-05 -7.783e-05 -8.21789e-05 -8.00899e-05 -7.4849e-05 -7.48664e-05 -0.000100258 -0.000138482 -0.0001536 -0.000152179 -0.000154513 -0.000152227 -0.0001352 -8.55985e-05 -4.12429e-05 -4.97722e-06 3.76858e-05 7.58103e-05 9.68856e-05 9.73971e-05 9.26217e-05 7.96275e-05 5.58365e-05 2.43264e-05 -1.25384e-05 -4.58035e-05 -6.9498e-05 -8.20166e-05 -8.54091e-05 -8.56607e-05 -9.04028e-05 -9.86887e-05 -0.000104384 -0.000109106 -0.000118837 -0.00013741 -0.000177827 -0.000248014 -0.000323617 -0.00037798 -0.000401714 -0.000409999 -0.000411176 -0.000394574 -0.000323087 -0.000227629 -0.000139117 -6.23354e-05 2.32003e-05 0.000160054 0.00029277 0.00033929 0.000346995 0.00034583 0.000344804 -0.000133826 -5.0895e-05 2.54432e-05 8.50724e-05 7.11579e-05 3.06323e-05 2.82392e-05 4.22897e-05 5.16772e-05 6.58792e-05 7.06778e-05 3.64251e-05 -1.34512e-05 -3.86188e-05 -4.65065e-05 -7.24835e-05 -0.000112553 -9.17632e-05 -2.71628e-05 -2.46433e-05 -9.48987e-05 -0.000194063 -0.000248267 -0.000226032 -0.00028462 -0.000396804 -0.00041355 -0.000390502 -0.000389323 -0.000398015 -0.000400419 -0.000381019 -0.000314485 -0.000256655 -0.000190946 -0.000119685 -9.37564e-05 -0.000129148 -0.0002123 -0.000287365 -0.000289919 -0.00026298 -0.000270025 -0.000325569 -0.00034532 -0.000283774 -0.000234427 -0.000219986 -0.000207793 -0.000208319 -0.000236865 -0.000290008 -0.000308754 -0.00027814 -0.000214306 -0.000126058 -7.76811e-05 -0.00011204 -0.000152552 -0.000136824 -0.000113684 -9.32986e-05 -7.80717e-05 -7.55327e-05 -8.82485e-05 -0.000124857 -0.000190433 -0.000290945 -0.000461176 -0.000608266 -0.000525445 -0.000314493 -0.000128194 -3.84991e-05 -4.84307e-05 -5.69348e-05 -5.15613e-05 -7.00134e-05 -8.2475e-05 -8.82003e-05 -0.000109102 -0.000145456 -0.000174243 -0.000162314 -0.000140366 -0.000117452 -0.000109039 -9.88535e-05 -6.58515e-05 -3.4435e-05 2.19922e-06 4.89538e-05 8.164e-05 9.92784e-05 9.52667e-05 9.24197e-05 8.0196e-05 4.8956e-05 1.62625e-05 -1.32567e-05 -4.20575e-05 -6.36283e-05 -7.3648e-05 -7.2442e-05 -7.06059e-05 -8.02716e-05 -9.5538e-05 -0.000102653 -0.000104387 -0.000113434 -0.000128576 -0.00016453 -0.000244422 -0.000329073 -0.000392437 -0.000434297 -0.000458288 -0.000463296 -0.000435889 -0.000348069 -0.000229518 -0.000120191 -3.05068e-05 6.35783e-05 0.000201674 0.000330245 0.000373987 0.000373495 0.000364705 0.000361637 0.000360889 0.000359905 -0.000142636 -4.86189e-05 4.19317e-05 8.92273e-05 2.79426e-05 -4.83223e-05 -3.113e-05 2.98441e-05 5.20938e-05 4.65316e-05 2.68822e-05 -2.28183e-05 -6.17599e-05 -5.62474e-05 -3.36277e-05 -4.52994e-05 -0.000107049 -9.47927e-05 -5.0732e-06 -9.88208e-06 -9.15321e-05 -0.000179123 -0.000247702 -0.000288541 -0.000406608 -0.000525522 -0.000478122 -0.00036813 -0.000322396 -0.000349179 -0.000381771 -0.00034206 -0.000273355 -0.000221822 -0.000183306 -0.000158323 -0.000173381 -0.000243718 -0.000343651 -0.000363861 -0.000293958 -0.000244393 -0.000246287 -0.000289166 -0.000294019 -0.000213724 -0.000156708 -0.000142794 -0.000143541 -0.00016512 -0.000202786 -0.000246008 -0.000259737 -0.000206937 -0.000128503 -7.46472e-05 -7.6218e-05 -0.000121573 -0.000148491 -0.000120333 -8.9004e-05 -7.31731e-05 -6.34706e-05 -6.12685e-05 -5.6379e-05 -6.77847e-05 -9.58968e-05 -0.000137386 -0.000247423 -0.000382419 -0.000345039 -0.000189969 -7.86972e-05 -6.03973e-05 -8.06842e-05 -8.14868e-05 -9.63111e-05 -0.000131571 -0.000140551 -0.000152877 -0.000177548 -0.000181348 -0.000173478 -0.000154564 -0.000130698 -0.000101056 -8.44314e-05 -7.19747e-05 -4.78709e-05 -2.5052e-05 8.44212e-06 4.9205e-05 6.39171e-05 8.072e-05 9.37788e-05 0.000105488 9.98633e-05 6.35401e-05 2.97892e-05 7.33078e-07 -3.23936e-05 -5.64034e-05 -6.61174e-05 -6.14654e-05 -5.52899e-05 -7.53818e-05 -0.000103859 -0.000114095 -0.000113889 -0.000132808 -0.000159521 -0.000198243 -0.000267507 -0.000342326 -0.000395662 -0.000429775 -0.00044178 -0.000425627 -0.000372905 -0.000289067 -0.000172092 -6.23308e-05 2.28198e-05 0.000116587 0.000252872 0.000360571 0.000388776 0.000374956 0.000351756 0.0003439 0.000344138 0.000347233 -0.000124925 -2.61961e-05 5.82506e-05 7.66851e-05 -1.92862e-05 -0.000110451 -6.67607e-05 4.02918e-05 6.22936e-05 2.62852e-05 -7.75706e-06 -6.40275e-05 -0.000103126 -9.39375e-05 -5.9254e-05 -3.46498e-05 -2.18983e-05 2.37684e-05 4.22948e-05 -1.39073e-05 -0.000102159 -0.000190457 -0.000217571 -0.0002467 -0.000357913 -0.000475472 -0.0003979 -0.000241459 -0.000166998 -