# vtk DataFile Version 2.0
3D Data
ASCII
DATASET UNSTRUCTURED_GRID
POINTS 8110 double 
840000 2.15393e+06 -10000
850000 2.15393e+06 -10000
860000 2.15393e+06 -10000
870000 2.15393e+06 -10000
880000 2.15393e+06 -10000
890000 2.15393e+06 -10000
900000 2.15393e+06 -10000
910000 2.15393e+06 -10000
920000 2.15393e+06 -10000
930000 2.15393e+06 -10000
940000 2.15393e+06 -10000
950000 2.15393e+06 -10000
960000 2.15393e+06 -10000
970000 2.15393e+06 -10000
980000 2.15393e+06 -10000
990000 2.15393e+06 -10000
1e+06 2.15393e+06 -10000
1.01e+06 2.15393e+06 -10000
1.02e+06 2.15393e+06 -10000
1.03e+06 2.15393e+06 -10000
1.04e+06 2.15393e+06 -10000
1.05e+06 2.15393e+06 -10000
1.06e+06 2.15393e+06 -10000
1.07e+06 2.15393e+06 -10000
1.08e+06 2.15393e+06 -10000
1.09e+06 2.15393e+06 -10000
1.1e+06 2.15393e+06 -10000
1.11e+06 2.15393e+06 -10000
1.12e+06 2.15393e+06 -10000
1.13e+06 2.15393e+06 -10000
1.14e+06 2.15393e+06 -10000
1.15e+06 2.15393e+06 -10000
1.16e+06 2.15393e+06 -10000
1.17e+06 2.15393e+06 -10000
1.18e+06 2.15393e+06 -10000
1.19e+06 2.15393e+06 -10000
1.2e+06 2.15393e+06 -10000
1.21e+06 2.15393e+06 -10000
1.22e+06 2.15393e+06 -10000
1.23e+06 2.15393e+06 -10000
1.24e+06 2.15393e+06 -10000
1.25e+06 2.15393e+06 -10000
1.26e+06 2.15393e+06 -10000
1.27e+06 2.15393e+06 -10000
1.28e+06 2.15393e+06 -10000
1.29e+06 2.15393e+06 -10000
1.3e+06 2.15393e+06 -10000
1.31e+06 2.15393e+06 -10000
1.32e+06 2.15393e+06 -10000
1.33e+06 2.15393e+06 -10000
1.37e+06 2.15393e+06 -10000
1.38e+06 2.15393e+06 -10000
1.39e+06 2.15393e+06 -10000
1.4e+06 2.15393e+06 -10000
1.41e+06 2.15393e+06 -10000
1.42e+06 2.15393e+06 -10000
1.43e+06 2.15393e+06 -10000
1.44e+06 2.15393e+06 -10000
1.45e+06 2.15393e+06 -10000
1.46e+06 2.15393e+06 -10000
1.47e+06 2.15393e+06 -10000
1.48e+06 2.15393e+06 -10000
1.49e+06 2.15393e+06 -10000
1.5e+06 2.15393e+06 -10000
1.51e+06 2.15393e+06 -10000
1.52e+06 2.15393e+06 -10000
1.53e+06 2.15393e+06 -10000
1.54e+06 2.15393e+06 -10000
1.55e+06 2.15393e+06 -10000
1.56e+06 2.15393e+06 -10000
1.57e+06 2.15393e+06 -10000
1.58e+06 2.15393e+06 -10000
1.59e+06 2.15393e+06 -10000
1.6e+06 2.15393e+06 -10000
1.61e+06 2.15393e+06 -10000
1.62e+06 2.15393e+06 -10000
1.63e+06 2.15393e+06 -10000
1.64e+06 2.15393e+06 -10000
1.65e+06 2.15393e+06 -10000
1.66e+06 2.15393e+06 -10000
1.67e+06 2.15393e+06 -10000
1.68e+06 2.15393e+06 -10000
1.69e+06 2.15393e+06 -10000
1.7e+06 2.15393e+06 -10000
1.71e+06 2.15393e+06 -10000
1.72e+06 2.15393e+06 -10000
1.73e+06 2.15393e+06 -10000
1.74e+06 2.15393e+06 -10000
1.75e+06 2.15393e+06 -10000
1.96e+06 2.15393e+06 -10000
1.97e+06 2.15393e+06 -10000
1.98e+06 2.15393e+06 -10000
1.99e+06 2.15393e+06 -10000
840000 2.16393e+06 -10000
850000 2.16393e+06 -10000
860000 2.16393e+06 -10000
870000 2.16393e+06 -10000
880000 2.16393e+06 -10000
890000 2.16393e+06 -10000
900000 2.16393e+06 -10000
910000 2.16393e+06 -10000
920000 2.16393e+06 -10000
930000 2.16393e+06 -10000
940000 2.16393e+06 -10000
950000 2.16393e+06 -10000
960000 2.16393e+06 -10000
970000 2.16393e+06 -10000
980000 2.16393e+06 -10000
990000 2.16393e+06 -10000
1e+06 2.16393e+06 -10000
1.01e+06 2.16393e+06 -10000
1.02e+06 2.16393e+06 -10000
1.03e+06 2.16393e+06 -10000
1.04e+06 2.16393e+06 -10000
1.05e+06 2.16393e+06 -10000
1.06e+06 2.16393e+06 -10000
1.07e+06 2.16393e+06 -10000
1.08e+06 2.16393e+06 -10000
1.09e+06 2.16393e+06 -10000
1.1e+06 2.16393e+06 -10000
1.11e+06 2.16393e+06 -10000
1.12e+06 2.16393e+06 -10000
1.13e+06 2.16393e+06 -10000
1.14e+06 2.16393e+06 -10000
1.15e+06 2.16393e+06 -10000
1.16e+06 2.16393e+06 -10000
1.17e+06 2.16393e+06 -10000
1.18e+06 2.16393e+06 -10000
1.19e+06 2.16393e+06 -10000
1.2e+06 2.16393e+06 -10000
1.21e+06 2.16393e+06 -10000
1.22e+06 2.16393e+06 -10000
1.23e+06 2.16393e+06 -10000
1.24e+06 2.16393e+06 -10000
1.25e+06 2.16393e+06 -10000
1.26e+06 2.16393e+06 -10000
1.27e+06 2.16393e+06 -10000
1.28e+06 2.16393e+06 -10000
1.29e+06 2.16393e+06 -10000
1.3e+06 2.16393e+06 -10000
1.31e+06 2.16393e+06 -10000
1.32e+06 2.16393e+06 -10000
1.33e+06 2.16393e+06 -10000
1.34e+06 2.16393e+06 -10000
1.35e+06 2.16393e+06 -10000
1.36e+06 2.16393e+06 -10000
1.37e+06 2.16393e+06 -10000
1.38e+06 2.16393e+06 -10000
1.39e+06 2.16393e+06 -10000
1.4e+06 2.16393e+06 -10000
1.41e+06 2.16393e+06 -10000
1.42e+06 2.16393e+06 -10000
1.43e+06 2.16393e+06 -10000
1.44e+06 2.16393e+06 -10000
1.45e+06 2.16393e+06 -10000
1.46e+06 2.16393e+06 -10000
1.47e+06 2.16393e+06 -10000
1.48e+06 2.16393e+06 -10000
1.49e+06 2.16393e+06 -10000
1.5e+06 2.16393e+06 -10000
1.51e+06 2.16393e+06 -10000
1.52e+06 2.16393e+06 -10000
1.53e+06 2.16393e+06 -10000
1.54e+06 2.16393e+06 -10000
1.55e+06 2.16393e+06 -10000
1.56e+06 2.16393e+06 -10000
1.57e+06 2.16393e+06 -10000
1.58e+06 2.16393e+06 -10000
1.59e+06 2.16393e+06 -10000
1.6e+06 2.16393e+06 -10000
1.61e+06 2.16393e+06 -10000
1.62e+06 2.16393e+06 -10000
1.63e+06 2.16393e+06 -10000
1.64e+06 2.16393e+06 -10000
1.65e+06 2.16393e+06 -10000
1.66e+06 2.16393e+06 -10000
1.67e+06 2.16393e+06 -10000
1.68e+06 2.16393e+06 -10000
1.69e+06 2.16393e+06 -10000
1.7e+06 2.16393e+06 -10000
1.71e+06 2.16393e+06 -10000
1.72e+06 2.16393e+06 -10000
1.73e+06 2.16393e+06 -10000
1.74e+06 2.16393e+06 -10000
1.75e+06 2.16393e+06 -10000
1.76e+06 2.16393e+06 -10000
1.95e+06 2.16393e+06 -10000
1.96e+06 2.16393e+06 -10000
1.97e+06 2.16393e+06 -10000
1.98e+06 2.16393e+06 -10000
1.99e+06 2.16393e+06 -10000
2e+06 2.16393e+06 -10000
840000 2.17393e+06 -10000
850000 2.17393e+06 -10000
860000 2.17393e+06 -10000
870000 2.17393e+06 -10000
880000 2.17393e+06 -10000
890000 2.17393e+06 -10000
900000 2.17393e+06 -10000
910000 2.17393e+06 -10000
920000 2.17393e+06 -10000
930000 2.17393e+06 -10000
940000 2.17393e+06 -10000
950000 2.17393e+06 -10000
960000 2.17393e+06 -10000
970000 2.17393e+06 -10000
980000 2.17393e+06 -10000
990000 2.17393e+06 -10000
1e+06 2.17393e+06 -10000
1.01e+06 2.17393e+06 -10000
1.02e+06 2.17393e+06 -10000
1.03e+06 2.17393e+06 -10000
1.04e+06 2.17393e+06 -10000
1.05e+06 2.17393e+06 -10000
1.06e+06 2.17393e+06 -10000
1.07e+06 2.17393e+06 -10000
1.08e+06 2.17393e+06 -10000
1.09e+06 2.17393e+06 -10000
1.1e+06 2.17393e+06 -10000
1.11e+06 2.17393e+06 -10000
1.12e+06 2.17393e+06 -10000
1.13e+06 2.17393e+06 -10000
1.14e+06 2.17393e+06 -10000
1.15e+06 2.17393e+06 -10000
1.16e+06 2.17393e+06 -10000
1.17e+06 2.17393e+06 -10000
1.18e+06 2.17393e+06 -10000
1.19e+06 2.17393e+06 -10000
1.2e+06 2.17393e+06 -10000
1.21e+06 2.17393e+06 -10000
1.22e+06 2.17393e+06 -10000
1.23e+06 2.17393e+06 -10000
1.24e+06 2.17393e+06 -10000
1.25e+06 2.17393e+06 -10000
1.26e+06 2.17393e+06 -10000
1.27e+06 2.17393e+06 -10000
1.28e+06 2.17393e+06 -10000
1.29e+06 2.17393e+06 -10000
1.3e+06 2.17393e+06 -10000
1.31e+06 2.17393e+06 -10000
1.32e+06 2.17393e+06 -10000
1.33e+06 2.17393e+06 -10000
1.34e+06 2.17393e+06 -10000
1.35e+06 2.17393e+06 -10000
1.36e+06 2.17393e+06 -10000
1.37e+06 2.17393e+06 -10000
1.38e+06 2.17393e+06 -10000
1.39e+06 2.17393e+06 -10000
1.4e+06 2.17393e+06 -10000
1.41e+06 2.17393e+06 -10000
1.42e+06 2.17393e+06 -10000
1.43e+06 2.17393e+06 -10000
1.44e+06 2.17393e+06 -10000
1.45e+06 2.17393e+06 -10000
1.46e+06 2.17393e+06 -10000
1.47e+06 2.17393e+06 -10000
1.48e+06 2.17393e+06 -10000
1.49e+06 2.17393e+06 -10000
1.5e+06 2.17393e+06 -10000
1.51e+06 2.17393e+06 -10000
1.52e+06 2.17393e+06 -10000
1.53e+06 2.17393e+06 -10000
1.54e+06 2.17393e+06 -10000
1.55e+06 2.17393e+06 -10000
1.56e+06 2.17393e+06 -10000
1.57e+06 2.17393e+06 -10000
1.58e+06 2.17393e+06 -10000
1.59e+06 2.17393e+06 -10000
1.6e+06 2.17393e+06 -10000
1.61e+06 2.17393e+06 -10000
1.62e+06 2.17393e+06 -10000
1.63e+06 2.17393e+06 -10000
1.64e+06 2.17393e+06 -10000
1.65e+06 2.17393e+06 -10000
1.66e+06 2.17393e+06 -10000
1.67e+06 2.17393e+06 -10000
1.68e+06 2.17393e+06 -10000
1.69e+06 2.17393e+06 -10000
1.7e+06 2.17393e+06 -10000
1.71e+06 2.17393e+06 -10000
1.72e+06 2.17393e+06 -10000
1.73e+06 2.17393e+06 -10000
1.74e+06 2.17393e+06 -10000
1.75e+06 2.17393e+06 -10000
1.76e+06 2.17393e+06 -10000
1.94e+06 2.17393e+06 -10000
1.95e+06 2.17393e+06 -10000
1.96e+06 2.17393e+06 -10000
1.97e+06 2.17393e+06 -10000
1.98e+06 2.17393e+06 -10000
1.99e+06 2.17393e+06 -10000
2e+06 2.17393e+06 -10000
2.01e+06 2.17393e+06 -10000
840000 2.18393e+06 -10000
850000 2.18393e+06 -10000
860000 2.18393e+06 -10000
870000 2.18393e+06 -10000
880000 2.18393e+06 -10000
890000 2.18393e+06 -10000
900000 2.18393e+06 -10000
910000 2.18393e+06 -10000
920000 2.18393e+06 -10000
930000 2.18393e+06 -10000
940000 2.18393e+06 -10000
950000 2.18393e+06 -10000
960000 2.18393e+06 -10000
970000 2.18393e+06 -10000
980000 2.18393e+06 -10000
990000 2.18393e+06 -10000
1e+06 2.18393e+06 -10000
1.01e+06 2.18393e+06 -10000
1.02e+06 2.18393e+06 -10000
1.03e+06 2.18393e+06 -10000
1.04e+06 2.18393e+06 -10000
1.05e+06 2.18393e+06 -10000
1.06e+06 2.18393e+06 -10000
1.07e+06 2.18393e+06 -10000
1.08e+06 2.18393e+06 -10000
1.09e+06 2.18393e+06 -10000
1.1e+06 2.18393e+06 -10000
1.11e+06 2.18393e+06 -10000
1.12e+06 2.18393e+06 -10000
1.13e+06 2.18393e+06 -10000
1.14e+06 2.18393e+06 -10000
1.15e+06 2.18393e+06 -10000
1.16e+06 2.18393e+06 -10000
1.17e+06 2.18393e+06 -10000
1.18e+06 2.18393e+06 -10000
1.19e+06 2.18393e+06 -10000
1.2e+06 2.18393e+06 -10000
1.21e+06 2.18393e+06 -10000
1.22e+06 2.18393e+06 -10000
1.23e+06 2.18393e+06 -10000
1.24e+06 2.18393e+06 -10000
1.25e+06 2.18393e+06 -10000
1.26e+06 2.18393e+06 -10000
1.27e+06 2.18393e+06 -10000
1.28e+06 2.18393e+06 -10000
1.29e+06 2.18393e+06 -10000
1.3e+06 2.18393e+06 -10000
1.31e+06 2.18393e+06 -10000
1.32e+06 2.18393e+06 -10000
1.33e+06 2.18393e+06 -10000
1.34e+06 2.18393e+06 -10000
1.35e+06 2.18393e+06 -10000
1.36e+06 2.18393e+06 -10000
1.37e+06 2.18393e+06 -10000
1.38e+06 2.18393e+06 -10000
1.39e+06 2.18393e+06 -10000
1.4e+06 2.18393e+06 -10000
1.41e+06 2.18393e+06 -10000
1.42e+06 2.18393e+06 -10000
1.43e+06 2.18393e+06 -10000
1.44e+06 2.18393e+06 -10000
1.45e+06 2.18393e+06 -10000
1.46e+06 2.18393e+06 -10000
1.47e+06 2.18393e+06 -10000
1.48e+06 2.18393e+06 -10000
1.49e+06 2.18393e+06 -10000
1.5e+06 2.18393e+06 -10000
[...]
POINT_DATA 8110
SCALARS grav_accel double
LOOKUP_TABLE default
7.56769e-05 0.000105439 0.000132358 0.000145413 0.000142396 0.000130153 0.000115807 0.000104035 9.6123e-05 8.9992e-05 8.18094e-05 6.88318e-05 5.1477e-05 3.28544e-05 1.62304e-05 2.56497e-06 -9.55765e-06 -2.18901e-05 -3.52599e-05 -5.04549e-05 -6.75482e-05 -8.09928e-05 -7.93121e-05 -5.09854e-05 7.46621e-06 8.6494e-05 0.000170635 0.000253749 0.00034041 0.000431793 0.000518755 0.000591302 0.000646946 0.000688715 0.000720966 0.000747894 0.00077255 0.000795174 0.000813916 0.000826958 0.000830616 0.000820604 0.000799753 0.000772411 0.000728986 0.000661187 0.000577186 0.000481099 0.000380716 0.000282344 -9.23787e-05 -0.000166634 -0.000213293 -0.00023079 -0.000228533 -0.000220831 -0.000218681 -0.000225307 -0.000234955 -0.000234519 -0.000212206 -0.000161773 -8.70758e-05 -3.63756e-06 6.58224e-05 0.000101678 0.000100972 7.20188e-05 2.55304e-05 -2.01618e-05 -4.95215e-05 -5.72849e-05 -4.51861e-05 -1.65873e-05 2.56886e-05 7.61642e-05 0.000123052 0.000153348 0.00016479 0.000168944 0.000179858 0.000201515 0.000227137 0.000247876 0.000259443 0.000262308 0.00025805 0.000247172 0.000229072 -0.000339213 -0.000349393 -0.000343805 -0.000322662 9.54911e-05 0.000130682 0.000158464 0.000167732 0.000159003 0.00014061 0.000120618 0.000104967 9.49898e-05 8.74614e-05 7.72357e-05 6.10922e-05 4.00755e-05 1.8719e-05 1.58889e-06 -9.99794e-06 -1.77123e-05 -2.31912e-05 -2.66231e-05 -2.88687e-05 -3.19978e-05 -3.37652e-05 -2.42164e-05 9.223e-06 7.034e-05 0.000147736 0.000223603 0.00029457 0.000371861 0.000461281 0.000552221 0.00063073 0.00069211 0.000739012 0.000775898 0.000805605 0.000830978 0.000852973 0.000870667 0.00088544 0.000892043 0.000875275 0.000846423 0.000814551 0.000766839 0.000693695 0.000601192 0.000495903 0.000387934 0.000285209 0.000186642 8.82939e-05 -1.43252e-05 -0.000117532 -0.000205158 -0.000261003 -0.000281063 -0.000275858 -0.000262743 -0.000256232 -0.000262252 -0.000276803 -0.000288249 -0.00028388 -0.000254488 -0.000198877 -0.000126537 -5.64108e-05 -9.33268e-06 4.37158e-06 -1.12605e-05 -4.48083e-05 -7.88296e-05 -0.00010005 -0.000103555 -8.92769e-05 -5.72537e-05 -6.70986e-06 5.85445e-05 0.000124298 0.000172486 0.000197584 0.000210992 0.000227494 0.000251053 0.000274972 0.000291767 0.000299076 0.000298263 0.000291276 0.000278062 0.000257921 0.000231419 -0.000340233 -0.000360043 -0.000365869 -0.000358101 -0.000337029 -0.000302749 0.000111968 0.00014871 0.000173441 0.000178251 0.000165674 0.000143081 0.000119397 0.000101012 8.87721e-05 7.84921e-05 6.44646e-05 4.36663e-05 1.82324e-05 -5.48385e-06 -2.15573e-05 -2.85714e-05 -2.86869e-05 -2.30223e-05 -1.0145e-05 9.03095e-06 2.92359e-05 4.69101e-05 6.85311e-05 0.000106661 0.000165423 0.000232613 0.00029154 0.00034205 0.0004012 0.000479857 0.000567665 0.000648115 0.000713402 0.000764528 0.00080591 0.000838343 0.000864479 0.00088584 0.000901777 0.000915792 0.0009229 0.00090277 0.000863726 0.000821639 0.000760751 0.000676647 0.00057581 0.000466601 0.000358415 0.000257732 0.000162914 6.75129e-05 -3.52895e-05 -0.000142847 -0.000237626 -0.000299235 -0.00032124 -0.000313974 -0.000295981 -0.000284294 -0.00028808 -0.000306508 -0.000330664 -0.00034815 -0.000347501 -0.000322393 -0.000274552 -0.000215014 -0.000161136 -0.000127412 -0.000117567 -0.000125002 -0.000138094 -0.000147176 -0.000146767 -0.000133225 -0.00010189 -4.79523e-05 2.66997e-05 0.000106603 0.000170259 0.000209163 0.000232694 0.000253971 0.000276449 0.000295052 0.000305231 0.000307255 0.0003038 0.000296279 0.000283917 0.000265933 0.000242351 -0.000323609 -0.000348615 -0.000360695 -0.000360754 -0.000350203 -0.000329414 -0.000297455 -0.000253658 0.00011847 0.000153163 0.00017418 0.000177194 0.000164392 0.000142242 0.000119086 0.000100371 8.61031e-05 7.17812e-05 5.20483e-05 2.47e-05 -6.72222e-06 -3.34745e-05 -4.81381e-05 -4.94176e-05 -4.03204e-05 -2.17709e-05 8.69362e-06 4.99574e-05 9.34279e-05 0.000129926 0.000162689 0.000203373 0.00025597 0.000309894 0.00035204 0.000384258 0.000424785 0.000487595 0.000565793 0.000643311 0.00070948 0.000762756 0.000805839 0.000841761 0.000870426 0.000891554 0.000904519 0.000911046 0.000908148 0.000883902 0.00083565 0.000777284 0.000699602 0.000601278 0.000491848 0.000381669 0.000278648 0.000186052 0.000101069 1.57715e-05 -7.78723e-05 -0.000177945 -0.000267372 -0.000325422 -0.000345004 -0.000335457 -0.000314408 -0.000299366 -0.000301875 -0.000323796 -0.00035793 -0.000392712 -0.000415703 -0.000417463 -0.000394425 -0.000350553 -0.00029697 -0.000247398 -0.000211587 -0.00019181 -0.000184343 -0.000183035 -0.00018103 -0.000170694 -0.000143376 -9.18645e-05 -1.71308e-05 6.56285e-05 0.000134632 0.000180023 0.000208628 0.000230982 0.000249991 0.000262599 0.000267102 0.000265938 0.000262671 0.000258188 0.00025103 0.000240331 0.000226107 0.000207474 -0.00029576 -0.000325933 -0.000343338 -0.000348552 -0.000343317 -0.000329275 -0.000306958 -0.000275272 -0.000232414 -0.000179199 0.000112214 0.000143091 0.000162654 0.000167862 0.000160259 0.000144993 0.000127808 0.000111939 9.67215e-05 7.83103e-05 5.24604e-05 1.81517e-05 -1.9661e-05 -5.08048e-05 -6.64378e-05 -6.45464e-05 -4.84428e-05 -2.01013e-05 2.23076e-05 7.6618e-05 0.000131513 0.000176485 0.000214299 0.000255475 0.000303181 0.00034825 0.000380244 0.00040134 0.000427596 0.000473329 0.00053688 0.000605748 0.000668377 0.000723211 0.000770723 0.000810833 0.000841913 0.000862583 0.000871511 0.000867931 0.000850097 0.000814175 0.00075482 0.000676115 0.000578407 0.000466399 0.000351268 0.000244083 0.000150238 6.97857e-05 -1.18331e-06 -7.03849e-05 -0.000145574 -0.000225306 -0.000294924 -0.000337406 -0.000347855 -0.00033507 -0.000314349 -0.000301006 -0.000305935 -0.000330706 -0.000368736 -0.000409977 -0.000443297 -0.000459373 -0.000452916 -0.000423745 -0.000377305 -0.000323336 -0.000273364 -0.000236596 -0.000216396 -0.000209801 -0.000208643 -0.000202244 -0.000180052 -0.000135182 -6.93548e-05 3.7788e-06 6.55225e-05 0.000106842 0.00013232 0.000150018 0.000162726 0.000169419 0.000170629 0.000170114 0.000171603 0.000175108 0.000178281 0.000180388 0.000182177 0.0001822 -0.000256584 -0.000292809 -0.000317537 -0.000330079 -0.00033118 -0.000321907 -0.000303456 -0.000276881 -0.000242004 -0.00019723 -0.000142988 -8.64237e-05 9.40915e-05 0.000121457 0.000142144 0.000153798 0.000157264 0.000155002 0.00014881 0.000139351 0.000125767 0.000105787 7.7019e-05 3.89545e-05 -3.98868e-06 -4.22724e-05 -6.55516e-05 -6.86093e-05 -5.27423e-05 -2.14697e-05 2.33466e-05 7.68628e-05 0.000128094 0.000169509 0.000205626 0.000246208 0.000292684 0.000335286 0.000363961 0.000379848 0.000395675 0.000424297 0.000468667 0.000523474 0.000580917 0.000636423 0.000688251 0.000732737 0.000766277 0.000786169 0.000790084 0.000776543 0.000744524 0.000692272 0.000617698 0.000521471 0.000408354 0.000288669 0.00017585 7.84455e-05 -2.02262e-06 -6.76095e-05 -0.00012209 -0.000171715 -0.000222663 -0.000273478 -0.000313168 -0.000331114 -0.000327283 -0.000311381 -0.000295874 -0.000291208 -0.000302901 -0.000329316 -0.000364032 -0.000399608 -0.000429084 -0.000446946 -0.000449531 -0.000434745 -0.00040362 -0.000359436 -0.000310584 -0.000269334 -0.000244195 -0.000235231 -0.000234201 -0.000229123 -0.000209771 -0.000171808 -0.000118954 -6.27551e-05 -1.69756e-05 1.16646e-05 2.61384e-05 3.26646e-05 3.4948e-05 3.46885e-05 3.44467e-05 3.83289e-05 4.90904e-05 6.52522e-05 8.33685e-05 0.000102642 0.000124514 0.000147305 0.000163669 -0.000247654 -0.000279756 -0.000301765 -0.000313025 -0.000312975 -0.000300953 -0.000277507 -0.000244934 -0.000204968 -0.000156976 -0.000101573 -4.60772e-05 6.76396e-05 9.25781e-05 0.000116544 0.000137702 0.00015579 0.000169646 0.000177165 0.000177478 0.00016977 0.000153326 0.000127688 9.09647e-05 4.40579e-05 -6.16111e-06 -4.71487e-05 -6.64669e-05 -6.03073e-05 -3.39085e-05 5.26532e-06 4.83177e-05 8.61347e-05 0.000116401 0.000146697 0.000185965 0.000233166 0.000276856 0.000306023 0.000319727 0.000326926 0.000338508 0.000361024 0.000396489 0.000443005 0.000495469 0.000548413 0.000596279 0.000632418 0.000651048 0.000647652 0.000620887 0.000572582 0.000505042 0.000419783 0.00031913 0.000208899 0.00010007 4.044e-06 -7.50759e-05 -0.000138337 -0.00018782 -0.000226036 -0.000257072 -0.000284699 -0.000306677 -0.000315278 -0.000306838 -0.00028774 -0.000270298 -0.000264042 -0.000272591 -0.000293446 -0.000320095 -0.000346067 -0.000367762 -0.0003847 -0.000398006 -0.000408047 -0.000411856 -0.000404755 -0.000381561 -0.000344571 -0.000305714 -0.000277188 -0.000262891 -0.000256476 -0.000246792 -0.000225496 -0.000191365 -0.000150043 -0.000110639 -8.20907e-05 -6.91627e-05 -6.9905e-05 -7.90023e-05 -9.07581e-05 -9.98217e-05 -0.000101296 -9.12595e-05 -6.88952e-05 -3.79353e-05 -3.38237e-06 3.34198e-05 7.425e-05 0.000117605 -0.000230062 -0.000259203 -0.00028107 -0.0002941 -0.000295565 -0.0002827 -0.000255926 -0.000219248 -0.000176142 -0.000127023 -7.22241e-05 -1.82418e-05 3.79307e-05 6.16259e-05 8.99169e-05 0.00012124 0.000153565 0.00018229 0.000202697 0.000213658 0.000214877 0.000207447 0.000190844 0.000159063 0.000108279 4.20802e-05 -2.38894e-05 -6.78136e-05 -7.89804e-05 -6.30044e-05 -3.31359e-05 -2.87627e-06 1.98894e-05 3.76441e-05 6.08211e-05 9.72305e-05 0.000143453 0.000186961 0.000216012 0.000227207 0.000225649 0.000220547 0.000221205 0.000234727 0.000263862 0.00030629 0.000356279 0.000405559 0.000443305 0.000458272 0.000443049 0.000399076 0.000335336 0.000260794 0.000180272 9.63764e-05 1.26803e-05 -6.47815e-05 -0.000131315 -0.000186217 -0.000230628 -0.000265082 -0.000290437 -0.000308075 -0.000319096 -0.00031944 -0.000302815 -0.000272065 -0.000240438 -0.000223657 -0.000227981 -0.000249572 -0.000278001 -0.000302442 -0.000317122 -0.000323306 -0.000328073 -0.000339897 -0.000362801 -0.000391684 -0.000413368 -0.000414118 -0.000390287 -0.000351759 -0.000313902 -0.000286016 -0.000266102 -0.000245756 -0.000218898 -0.000186196 -0.000153556 -0.000126911 -0.000111602 -0.000112085 -0.000127056 -0.000151443 -0.000177302 -0.000195622 -0.000199006 -0.000183482 -0.000150304 -0.000106006 -5.77376e-05 -7.81016e-06 4.56689e-05 -0.000206487 -0.000233243 -0.000256426 -0.000273498 -0.000279561 -0.000269946 -0.000245549 -0.000210867 -0.000170324 -0.00012489 -7.34281e-05 -2.04231e-05 2.27634e-05 9.44515e-06 3.31378e-05 6.59304e-05 0.000105595 0.000148304 0.000187056 0.000216053 0.000234247 0.000243337 0.000246152 0.000238452 0.000210724 0.000155641 7.57664e-05 -1.10893e-05 -7.70174e-05 -0.000105709 -0.000102089 -8.25243e-05 -6.33197e-05 -5.22189e-05 -4.46059e-05 -2.90534e-05 8.22561e-07 4.01461e-05 7.69645e-05 0.000100403 0.000105573 9.458e-05 7.55769e-05 5.96922e-05 5.63902e-05 7.04353e-05 0.000102193 0.0001481 0.000198616 0.000237276 0.000246034 0.000216215 0.000156128 8.44391e-05 1.54622e-05 -4.59526e-05 -9.96036e-05 -0.000145878 -0.000185388 -0.000219386 -0.000249286 -0.000275846 -0.000298083 -0.000314236 -0.000325024 -0.000328617 -0.000317323 -0.000284372 -0.000237095 -0.000196797 -0.000181636 -0.000194605 -0.000224984 -0.00025594 -0.000274804 -0.00027814 -0.000272739 -0.000273023 -0.0002932 -0.000337564 -0.000395198 -0.00044406 -0.000463374 -0.000445281 -0.000398296 -0.000341291 -0.00029095 -0.000251991 -0.000219562 -0.000188826 -0.000159858 -0.00013511 -0.000117461 -0.000111131 -0.000120062 -0.000144112 -0.000178408 -0.000213361 -0.0002379 -0.000242842 -0.000223507 -0.000182691 -0.000129608 -7.35737e-05 -1.79519e-05 3.89883e-05 9.74576e-05 0.000150446 0.000185871 0.00017444 -0.0001793 -0.000203287 -0.00022804 -0.000250939 -0.000265848 -0.000266409 -0.000252521 -0.000228049 -0.00019751 -0.000161308 -0.000116125 -6.37038e-05 -1.50452e-05 2.08624e-05 -1.50016e-05 9.92398e-06 4.66835e-05 9.10075e-05 0.000137276 0.000178092 0.000208221 0.000227788 0.000241438 0.000250183 0.000247047 0.000220171 0.000161844 7.82552e-05 -1.37933e-05 -8.78975e-05 -0.000126815 -0.000134048 -0.00012478 -0.000114863 -0.000112491 -0.000113698 -0.000107945 -9.04434e-05 -6.66029e-05 -4.58354e-05 -3.54631e-05 -3.9797e-05 -5.84109e-05 -8.4165e-05 -0.000105784 -0.000113948 -0.000103977 -7.42826e-05 -2.68621e-05 2.76512e-05 6.77502e-05 7.04601e-05 2.87424e-05 -4.08265e-05 -0.000112065 -0.000169104 -0.000209488 -0.000235901 -0.000251354 -0.000259968 -0.000266701 -0.000275073 -0.00028626 -0.000298905 -0.000311534 -0.000323068 -0.000326981 -0.000310976 -0.000267519 -0.000208577 -0.000162395 -0.000148571 -0.000166659 -0.000199209 -0.000226208 -0.000236365 -0.000230068 -0.000219257 -0.000223811 -0.000260698 -0.000331115 -0.000415877 -0.000484757 -0.000513035 -0.000491306 -0.000427403 -0.000344222 -0.000267947 -0.000211561 -0.000172752 -0.000145057 -0.000124141 -0.000108188 -9.84619e-05 -9.8615e-05 -0.000112052 -0.000139023 -0.000174762 -0.000209669 -0.000233834 -0.000238181 -0.000216639 -0.000172762 -0.000117217 -6.0398e-05 -6.466e-06 4.5498e-05 9.60311e-05 0.000140551 0.000169786 0.000175474 0.000154123 0.000108078 4.86642e-05 -7.53015e-06 -4.92707e-05 -0.000151227 -0.000171594 -0.000197454 -0.000227488 -0.000255604 -0.00027366 -0.00027825 -0.000271508 -0.000256758 -0.000232956 -0.000195136 -0.000143281 -8.65588e-05 -3.43111e-05 -3.45695e-05 -7.40592e-06 3.23763e-05 7.64875e-05 0.00011721 0.000149998 0.000173954 0.000191102 0.000204711 0.000214482 0.000212248 0.000185885 0.000130278 5.51365e-05 -2.51359e-05 -9.14474e-05 -0.000129919 -0.00014279 -0.000141767 -0.000140378 -0.000147574 -0.000160584 -0.000169321 -0.000170429 -0.000169564 -0.000171729 -0.000177375 -0.00018897 -0.000208008 -0.000230281 -0.000246291 -0.000247974 -0.000231193 -0.000194541 -0.000140574 -8.17582e-05 -4.24681e-05 -4.59704e-05 -9.45303e-05 -0.000165132 -0.000228912 -0.000272358 -0.000296944 -0.000307175 -0.000305355 -0.000295172 -0.000283277 -0.000275831 -0.000275859 -0.000283373 -0.000297978 -0.00031484 -0.00032195 -0.000303409 -0.000252933 -0.000187216 -0.000138639 -0.000126512 -0.000145278 -0.000172986 -0.00019039 -0.00019034 -0.000177312 -0.000166173 -0.000178553 -0.000231174 -0.000321741 -0.00042475 -0.000504627 -0.000534996 -0.000505843 -0.000423787 -0.000316378 -0.000220373 -0.000155917 -0.000120419 -0.00010276 -9.35175e-05 -8.79949e-05 -8.6428e-05 -9.20753e-05 -0.000107613 -0.000132292 -0.000161298 -0.000187365 -0.000203924 -0.000203761 -0.000181062 -0.000138862 -8.68787e-05 -3.4719e-05 1.30325e-05 5.57363e-05 9.32491e-05 0.000123119 0.000140056 0.000138468 0.000115469 7.31917e-05 2.11988e-05 -2.68497e-05 -6.1655e-05 -8.15522e-05 -9.08973e-05 -9.58658e-05 -0.000100879 -0.000107489 -0.000115673 -0.000126399 -0.000143033 -0.000169596 -0.000207101 -0.000250427 -0.000289693 -0.000316955 -0.000330517 -0.000331403 -0.000317585 -0.000284245 -0.000230818 -0.000164484 -9.38835e-05 -2.03021e-05 5.97637e-05 0.000142135 0.000212092 -4.96318e-05 -1.95806e-05 2.22734e-05 6.17397e-05 8.96782e-05 0.00010715 0.000120255 0.000133012 0.000145047 0.000152855 0.000148459 0.000123426 7.7318e-05 1.97494e-05 -3.81553e-05 -8.49507e-05 -0.000112484 -0.000121869 -0.000123622 -0.000130934 -0.000152038 -0.000182758 -0.000211404 -0.000235524 -0.000260281 -0.000284228 -0.000300639 -0.000309947 -0.000318032 -0.0003276 -0.000332016 -0.000323606 -0.000297259 -0.000252184 -0.000193889 -0.000137597 -0.000107639 -0.000121304 -0.000172218 -0.000234218 -0.000281959 -0.000308786 -0.000321422 -0.000324447 -0.000316125 -0.000296966 -0.000274173 -0.000256886 -0.000250822 -0.000258386 -0.000277904 -0.000299442 -0.000307302 -0.000285585 -0.000232649 -0.000168493 -0.000124157 -0.000114874 -0.000130356 -0.000148075 -0.000153138 -0.000143702 -0.000127027 -0.000117507 -0.000134214 -0.000191587 -0.000286728 -0.000394103 -0.000476737 -0.000506805 -0.000474104 -0.000382306 -0.00026415 -0.000164053 -0.000104219 -8.00515e-05 -7.65376e-05 -8.09589e-05 -8.67145e-05 -9.31177e-05 -0.00010273 -0.00011729 -0.000135145 -0.000152125 -0.000164168 -0.000168348 -0.000160716 -0.000137582 -0.000100433 -5.58675e-05 -1.10979e-05 2.93461e-05 6.31998e-05 8.92793e-05 0.000106334 0.000112031 0.000103403 7.90904e-05 4.17559e-05 -8.52623e-07 -3.88663e-05 -6.5806e-05 -8.027e-05 -8.58706e-05 -8.84389e-05 -9.20581e-05 -9.72176e-05 -0.000102917 -0.000110512 -0.000124999 -0.000152608 -0.000196518 -0.000252602 -0.00030947 -0.000355214 -0.000383761 -0.000393619 -0.000382865 -0.00034832 -0.000289937 -0.0002137 -0.00012747 -3.39045e-05 6.77328e-05 0.000170144 0.000255126 0.000308838 0.000332624 0.000335198 0.000324799 -6.00719e-05 -2.74044e-05 1.48806e-05 4.65645e-05 5.78742e-05 5.80555e-05 6.19115e-05 7.36896e-05 8.61376e-05 9.02025e-05 7.97598e-05 5.37163e-05 1.7948e-05 -1.86071e-05 -4.99972e-05 -7.23107e-05 -8.23716e-05 -8.13371e-05 -8.02909e-05 -9.4461e-05 -0.00013061 -0.000180154 -0.000229797 -0.00027745 -0.000324788 -0.000361864 -0.000376414 -0.000371431 -0.000360564 -0.000352849 -0.000346236 -0.000333319 -0.000305008 -0.000260388 -0.000209458 -0.000169706 -0.00016126 -0.000190101 -0.00023918 -0.000282798 -0.000304622 -0.000308708 -0.00030769 -0.000304878 -0.000293345 -0.000269684 -0.000240522 -0.000217928 -0.00021102 -0.000222767 -0.000248079 -0.000272177 -0.000277552 -0.00025283 -0.000202876 -0.000149044 -0.000115735 -0.000110658 -0.000120295 -0.000125793 -0.000118936 -0.000102499 -8.42662e-05 -7.5341e-05 -8.96085e-05 -0.000138368 -0.000220941 -0.000317773 -0.000395885 -0.000426397 -0.000396801 -0.000310691 -0.000202946 -0.000116763 -7.25533e-05 -6.41389e-05 -7.54513e-05 -9.30612e-05 -0.00010902 -0.000121232 -0.000131118 -0.000139902 -0.000146598 -0.000148968 -0.000145744 -0.00013688 -0.000121668 -9.87218e-05 -6.80522e-05 -3.25746e-05 3.64322e-06 3.69622e-05 6.45338e-05 8.4691e-05 9.63193e-05 9.76456e-05 8.64238e-05 6.22846e-05 2.87165e-05 -7.48288e-06 -3.8744e-05 -6.04847e-05 -7.20377e-05 -7.64327e-05 -7.95492e-05 -8.53053e-05 -9.29242e-05 -0.000100167 -0.000108574 -0.000124229 -0.000154261 -0.000202465 -0.000264928 -0.0003293 -0.000381399 -0.000412742 -0.000420568 -0.000403828 -0.000361872 -0.000296217 -0.000212518 -0.000117895 -1.52459e-05 9.48675e-05 0.000203387 0.000290955 0.000343436 0.000362899 0.000361437 0.000349695 0.000330055 0.000298852 -6.69572e-05 -3.36338e-05 5.70289e-06 2.63773e-05 2.08762e-05 8.18775e-06 1.07033e-05 2.89193e-05 4.51217e-05 4.40891e-05 2.32864e-05 -9.21969e-06 -4.03366e-05 -6.02024e-05 -6.73055e-05 -6.44508e-05 -5.34427e-05 -3.81205e-05 -3.17058e-05 -4.91331e-05 -9.41769e-05 -0.000154501 -0.000217669 -0.000282294 -0.000344587 -0.00038533 -0.000387549 -0.000358916 -0.000325182 -0.000303591 -0.000294808 -0.000288011 -0.000270644 -0.000243031 -0.000217133 -0.000208991 -0.000229378 -0.000272157 -0.000314255 -0.00033338 -0.0003237 -0.000299707 -0.000279175 -0.000264833 -0.000246806 -0.000218029 -0.000184665 -0.000160755 -0.000156508 -0.000173768 -0.000204106 -0.000230184 -0.000234509 -0.000210626 -0.000169141 -0.000131064 -0.000112025 -0.000110735 -0.000112882 -0.000106296 -8.9813e-05 -6.896e-05 -5.00377e-05 -4.00663e-05 -4.78172e-05 -8.1363e-05 -0.000142223 -0.000218546 -0.000286064 -0.000317977 -0.000297757 -0.00023202 -0.000152038 -9.19883e-05 -6.79641e-05 -7.40609e-05 -9.6796e-05 -0.000124012 -0.00014652 -0.000160214 -0.000165316 -0.00016372 -0.000156902 -0.000145211 -0.000128943 -0.000109358 -8.80108e-05 -6.55623e-05 -4.15172e-05 -1.58969e-05 1.05586e-05 3.63334e-05 5.9664e-05 7.91934e-05 9.29104e-05 9.7263e-05 8.86408e-05 6.65586e-05 3.51894e-05 1.53952e-06 -2.7454e-05 -4.79002e-05 -5.96428e-05 -6.57224e-05 -7.22123e-05 -8.28327e-05 -9.57229e-05 -0.000107824 -0.000120982 -0.000141568 -0.000175752 -0.000225843 -0.000287138 -0.000347061 -0.000391084 -0.000411089 -0.00040474 -0.000372503 -0.00031784 -0.000245138 -0.000160111 -6.81049e-05 2.98304e-05 0.000133836 0.0002347 0.000313526 0.000357168 0.000368574 0.000361492 0.000348165 0.000330681 0.000302928 -7.55263e-05 -4.70683e-05 -1.63904e-05 -8.89206e-06 -2.70697e-05 -4.3997e-05 -3.37049e-05 -2.01638e-06 2.16855e-05 1.58153e-05 -1.85891e-05 -6.43459e-05 -0.000100563 -0.000113615 -0.000103316 -7.71421e-05 -4.26973e-05 -9.73506e-06 5.58092e-06 -8.74441e-06 -5.0675e-05 -0.000107748 -0.000171398 -0.000241581 -0.000309943 -0.000349413 -0.00033801 