# vtk DataFile Version 2.0
3D Data
ASCII
DATASET UNSTRUCTURED_GRID
POINTS 7482 double 
1.317e+06 2.13836e+06 -10000
1.327e+06 2.13836e+06 -10000
1.337e+06 2.13836e+06 -10000
1.347e+06 2.13836e+06 -10000
1.357e+06 2.13836e+06 -10000
1.487e+06 2.13836e+06 -10000
1.297e+06 2.14836e+06 -10000
1.307e+06 2.14836e+06 -10000
1.317e+06 2.14836e+06 -10000
1.327e+06 2.14836e+06 -10000
1.337e+06 2.14836e+06 -10000
1.347e+06 2.14836e+06 -10000
1.357e+06 2.14836e+06 -10000
1.367e+06 2.14836e+06 -10000
1.467e+06 2.14836e+06 -10000
1.477e+06 2.14836e+06 -10000
1.487e+06 2.14836e+06 -10000
1.497e+06 2.14836e+06 -10000
1.547e+06 2.14836e+06 -10000
1.557e+06 2.14836e+06 -10000
1.567e+06 2.14836e+06 -10000
1.587e+06 2.14836e+06 -10000
1.597e+06 2.14836e+06 -10000
1.287e+06 2.15836e+06 -10000
1.297e+06 2.15836e+06 -10000
1.307e+06 2.15836e+06 -10000
1.317e+06 2.15836e+06 -10000
1.327e+06 2.15836e+06 -10000
1.337e+06 2.15836e+06 -10000
1.347e+06 2.15836e+06 -10000
1.357e+06 2.15836e+06 -10000
1.367e+06 2.15836e+06 -10000
1.377e+06 2.15836e+06 -10000
1.457e+06 2.15836e+06 -10000
1.467e+06 2.15836e+06 -10000
1.477e+06 2.15836e+06 -10000
1.487e+06 2.15836e+06 -10000
1.497e+06 2.15836e+06 -10000
1.507e+06 2.15836e+06 -10000
1.527e+06 2.15836e+06 -10000
1.537e+06 2.15836e+06 -10000
1.547e+06 2.15836e+06 -10000
1.557e+06 2.15836e+06 -10000
1.567e+06 2.15836e+06 -10000
1.577e+06 2.15836e+06 -10000
1.587e+06 2.15836e+06 -10000
1.597e+06 2.15836e+06 -10000
1.607e+06 2.15836e+06 -10000
1.617e+06 2.15836e+06 -10000
1.627e+06 2.15836e+06 -10000
1.967e+06 2.15836e+06 -10000
1.277e+06 2.16836e+06 -10000
1.287e+06 2.16836e+06 -10000
1.297e+06 2.16836e+06 -10000
1.307e+06 2.16836e+06 -10000
1.317e+06 2.16836e+06 -10000
1.327e+06 2.16836e+06 -10000
1.337e+06 2.16836e+06 -10000
1.347e+06 2.16836e+06 -10000
1.357e+06 2.16836e+06 -10000
1.367e+06 2.16836e+06 -10000
1.377e+06 2.16836e+06 -10000
1.427e+06 2.16836e+06 -10000
1.437e+06 2.16836e+06 -10000
1.447e+06 2.16836e+06 -10000
1.457e+06 2.16836e+06 -10000
1.467e+06 2.16836e+06 -10000
1.477e+06 2.16836e+06 -10000
1.487e+06 2.16836e+06 -10000
1.497e+06 2.16836e+06 -10000
1.507e+06 2.16836e+06 -10000
1.517e+06 2.16836e+06 -10000
1.527e+06 2.16836e+06 -10000
1.537e+06 2.16836e+06 -10000
1.547e+06 2.16836e+06 -10000
1.557e+06 2.16836e+06 -10000
1.567e+06 2.16836e+06 -10000
1.577e+06 2.16836e+06 -10000
1.587e+06 2.16836e+06 -10000
1.597e+06 2.16836e+06 -10000
1.607e+06 2.16836e+06 -10000
1.617e+06 2.16836e+06 -10000
1.627e+06 2.16836e+06 -10000
1.637e+06 2.16836e+06 -10000
1.957e+06 2.16836e+06 -10000
1.967e+06 2.16836e+06 -10000
1.977e+06 2.16836e+06 -10000
1.247e+06 2.17836e+06 -10000
1.257e+06 2.17836e+06 -10000
1.267e+06 2.17836e+06 -10000
1.277e+06 2.17836e+06 -10000
1.287e+06 2.17836e+06 -10000
1.297e+06 2.17836e+06 -10000
1.307e+06 2.17836e+06 -10000
1.317e+06 2.17836e+06 -10000
1.327e+06 2.17836e+06 -10000
1.337e+06 2.17836e+06 -10000
1.347e+06 2.17836e+06 -10000
1.357e+06 2.17836e+06 -10000
1.367e+06 2.17836e+06 -10000
1.377e+06 2.17836e+06 -10000
1.387e+06 2.17836e+06 -10000
1.397e+06 2.17836e+06 -10000
1.407e+06 2.17836e+06 -10000
1.417e+06 2.17836e+06 -10000
1.427e+06 2.17836e+06 -10000
1.437e+06 2.17836e+06 -10000
1.447e+06 2.17836e+06 -10000
1.457e+06 2.17836e+06 -10000
1.467e+06 2.17836e+06 -10000
1.477e+06 2.17836e+06 -10000
1.487e+06 2.17836e+06 -10000
1.497e+06 2.17836e+06 -10000
1.507e+06 2.17836e+06 -10000
1.517e+06 2.17836e+06 -10000
1.527e+06 2.17836e+06 -10000
1.537e+06 2.17836e+06 -10000
1.547e+06 2.17836e+06 -10000
1.557e+06 2.17836e+06 -10000
1.567e+06 2.17836e+06 -10000
1.577e+06 2.17836e+06 -10000
1.587e+06 2.17836e+06 -10000
1.597e+06 2.17836e+06 -10000
1.607e+06 2.17836e+06 -10000
1.617e+06 2.17836e+06 -10000
1.627e+06 2.17836e+06 -10000
1.637e+06 2.17836e+06 -10000
1.647e+06 2.17836e+06 -10000
1.657e+06 2.17836e+06 -10000
1.667e+06 2.17836e+06 -10000
1.727e+06 2.17836e+06 -10000
1.947e+06 2.17836e+06 -10000
1.957e+06 2.17836e+06 -10000
1.967e+06 2.17836e+06 -10000
1.977e+06 2.17836e+06 -10000
1.987e+06 2.17836e+06 -10000
1.007e+06 2.18836e+06 -10000
1.017e+06 2.18836e+06 -10000
1.027e+06 2.18836e+06 -10000
1.037e+06 2.18836e+06 -10000
1.047e+06 2.18836e+06 -10000
1.057e+06 2.18836e+06 -10000
1.097e+06 2.18836e+06 -10000
1.237e+06 2.18836e+06 -10000
1.247e+06 2.18836e+06 -10000
1.257e+06 2.18836e+06 -10000
1.267e+06 2.18836e+06 -10000
1.277e+06 2.18836e+06 -10000
1.287e+06 2.18836e+06 -10000
1.297e+06 2.18836e+06 -10000
1.307e+06 2.18836e+06 -10000
1.317e+06 2.18836e+06 -10000
1.327e+06 2.18836e+06 -10000
1.337e+06 2.18836e+06 -10000
1.347e+06 2.18836e+06 -10000
1.357e+06 2.18836e+06 -10000
1.367e+06 2.18836e+06 -10000
1.377e+06 2.18836e+06 -10000
1.387e+06 2.18836e+06 -10000
1.397e+06 2.18836e+06 -10000
1.407e+06 2.18836e+06 -10000
1.417e+06 2.18836e+06 -10000
1.427e+06 2.18836e+06 -10000
1.437e+06 2.18836e+06 -10000
1.447e+06 2.18836e+06 -10000
1.457e+06 2.18836e+06 -10000
1.467e+06 2.18836e+06 -10000
1.477e+06 2.18836e+06 -10000
1.487e+06 2.18836e+06 -10000
1.497e+06 2.18836e+06 -10000
1.507e+06 2.18836e+06 -10000
1.517e+06 2.18836e+06 -10000
1.527e+06 2.18836e+06 -10000
1.537e+06 2.18836e+06 -10000
1.547e+06 2.18836e+06 -10000
1.557e+06 2.18836e+06 -10000
1.567e+06 2.18836e+06 -10000
1.577e+06 2.18836e+06 -10000
1.587e+06 2.18836e+06 -10000
1.597e+06 2.18836e+06 -10000
1.607e+06 2.18836e+06 -10000
1.617e+06 2.18836e+06 -10000
1.627e+06 2.18836e+06 -10000
1.637e+06 2.18836e+06 -10000
1.647e+06 2.18836e+06 -10000
1.657e+06 2.18836e+06 -10000
1.667e+06 2.18836e+06 -10000
1.677e+06 2.18836e+06 -10000
1.687e+06 2.18836e+06 -10000
1.697e+06 2.18836e+06 -10000
1.717e+06 2.18836e+06 -10000
1.727e+06 2.18836e+06 -10000
1.737e+06 2.18836e+06 -10000
1.937e+06 2.18836e+06 -10000
1.947e+06 2.18836e+06 -10000
1.957e+06 2.18836e+06 -10000
1.967e+06 2.18836e+06 -10000
1.977e+06 2.18836e+06 -10000
1.987e+06 2.18836e+06 -10000
1.997e+06 2.18836e+06 -10000
997000 2.19836e+06 -10000
1.007e+06 2.19836e+06 -10000
1.017e+06 2.19836e+06 -10000
1.027e+06 2.19836e+06 -10000
1.037e+06 2.19836e+06 -10000
1.047e+06 2.19836e+06 -10000
1.057e+06 2.19836e+06 -10000
1.067e+06 2.19836e+06 -10000
1.077e+06 2.19836e+06 -10000
1.087e+06 2.19836e+06 -10000
1.097e+06 2.19836e+06 -10000
1.107e+06 2.19836e+06 -10000
1.117e+06 2.19836e+06 -10000
1.127e+06 2.19836e+06 -10000
1.137e+06 2.19836e+06 -10000
1.147e+06 2.19836e+06 -10000
1.157e+06 2.19836e+06 -10000
1.167e+06 2.19836e+06 -10000
1.177e+06 2.19836e+06 -10000
1.187e+06 2.19836e+06 -10000
1.197e+06 2.19836e+06 -10000
1.207e+06 2.19836e+06 -10000
1.217e+06 2.19836e+06 -10000
1.227e+06 2.19836e+06 -10000
1.237e+06 2.19836e+06 -10000
1.247e+06 2.19836e+06 -10000
1.257e+06 2.19836e+06 -10000
1.267e+06 2.19836e+06 -10000
1.277e+06 2.19836e+06 -10000
1.287e+06 2.19836e+06 -10000
1.297e+06 2.19836e+06 -10000
1.307e+06 2.19836e+06 -10000
1.317e+06 2.19836e+06 -10000
1.327e+06 2.19836e+06 -10000
1.337e+06 2.19836e+06 -10000
1.347e+06 2.19836e+06 -10000
1.357e+06 2.19836e+06 -10000
1.367e+06 2.19836e+06 -10000
1.377e+06 2.19836e+06 -10000
1.387e+06 2.19836e+06 -10000
1.397e+06 2.19836e+06 -10000
1.407e+06 2.19836e+06 -10000
1.417e+06 2.19836e+06 -10000
1.427e+06 2.19836e+06 -10000
1.437e+06 2.19836e+06 -10000
1.447e+06 2.19836e+06 -10000
1.457e+06 2.19836e+06 -10000
1.467e+06 2.19836e+06 -10000
1.477e+06 2.19836e+06 -10000
1.487e+06 2.19836e+06 -10000
1.497e+06 2.19836e+06 -10000
1.507e+06 2.19836e+06 -10000
1.517e+06 2.19836e+06 -10000
1.527e+06 2.19836e+06 -10000
1.537e+06 2.19836e+06 -10000
1.547e+06 2.19836e+06 -10000
1.557e+06 2.19836e+06 -10000
1.567e+06 2.19836e+06 -10000
1.577e+06 2.19836e+06 -10000
1.587e+06 2.19836e+06 -10000
1.597e+06 2.19836e+06 -10000
1.607e+06 2.19836e+06 -10000
1.617e+06 2.19836e+06 -10000
1.627e+06 2.19836e+06 -10000
1.637e+06 2.19836e+06 -10000
1.647e+06 2.19836e+06 -10000
1.657e+06 2.19836e+06 -10000
1.667e+06 2.19836e+06 -10000
1.677e+06 2.19836e+06 -10000
1.687e+06 2.19836e+06 -10000
1.697e+06 2.19836e+06 -10000
1.707e+06 2.19836e+06 -10000
1.717e+06 2.19836e+06 -10000
1.727e+06 2.19836e+06 -10000
1.737e+06 2.19836e+06 -10000
1.747e+06 2.19836e+06 -10000
1.937e+06 2.19836e+06 -10000
1.947e+06 2.19836e+06 -10000
1.957e+06 2.19836e+06 -10000
1.967e+06 2.19836e+06 -10000
1.977e+06 2.19836e+06 -10000
1.987e+06 2.19836e+06 -10000
1.997e+06 2.19836e+06 -10000
2.007e+06 2.19836e+06 -10000
987000 2.20836e+06 -10000
997000 2.20836e+06 -10000
1.007e+06 2.20836e+06 -10000
1.017e+06 2.20836e+06 -10000
1.027e+06 2.20836e+06 -10000
1.037e+06 2.20836e+06 -10000
1.047e+06 2.20836e+06 -10000
1.057e+06 2.20836e+06 -10000
1.067e+06 2.20836e+06 -10000
1.077e+06 2.20836e+06 -10000
1.087e+06 2.20836e+06 -10000
1.097e+06 2.20836e+06 -10000
1.107e+06 2.20836e+06 -10000
1.117e+06 2.20836e+06 -10000
1.127e+06 2.20836e+06 -10000
1.137e+06 2.20836e+06 -10000
1.147e+06 2.20836e+06 -10000
1.157e+06 2.20836e+06 -10000
1.167e+06 2.20836e+06 -10000
1.177e+06 2.20836e+06 -10000
1.187e+06 2.20836e+06 -10000
1.197e+06 2.20836e+06 -10000
1.207e+06 2.20836e+06 -10000
1.217e+06 2.20836e+06 -10000
1.227e+06 2.20836e+06 -10000
1.237e+06 2.20836e+06 -10000
1.247e+06 2.20836e+06 -10000
1.257e+06 2.20836e+06 -10000
1.267e+06 2.20836e+06 -10000
1.277e+06 2.20836e+06 -10000
1.287e+06 2.20836e+06 -10000
1.297e+06 2.20836e+06 -10000
1.307e+06 2.20836e+06 -10000
1.317e+06 2.20836e+06 -10000
1.327e+06 2.20836e+06 -10000
1.337e+06 2.20836e+06 -10000
1.347e+06 2.20836e+06 -10000
1.357e+06 2.20836e+06 -10000
1.367e+06 2.20836e+06 -10000
1.377e+06 2.20836e+06 -10000
1.387e+06 2.20836e+06 -10000
1.397e+06 2.20836e+06 -10000
1.407e+06 2.20836e+06 -10000
1.417e+06 2.20836e+06 -10000
1.427e+06 2.20836e+06 -10000
1.437e+06 2.20836e+06 -10000
1.447e+06 2.20836e+06 -10000
1.457e+06 2.20836e+06 -10000
1.467e+06 2.20836e+06 -10000
1.477e+06 2.20836e+06 -10000
1.487e+06 2.20836e+06 -10000
1.497e+06 2.20836e+06 -10000
1.507e+06 2.20836e+06 -10000
1.517e+06 2.20836e+06 -10000
1.527e+06 2.20836e+06 -10000
1.537e+06 2.20836e+06 -10000
1.547e+06 2.20836e+06 -10000
1.557e+06 2.20836e+06 -10000
[...]
POINT_DATA 7482
SCALARS T double
LOOKUP_TABLE default
18.2024 20.8211 20.0736 17.3883 17.4941 21.8287 9.84323 10.7238 15.4833 19.0264 17.5866 13.1009 10.892 12.654 30.7405 16.8028 6.78243 14.1644 3.8318 -8.80941 -3.17376 18.4866 32.8455 19.4957 10.3148 8.92118 11.6237 13.1151 9.90326 3.98664 -0.811464 -4.6132 -0.0400399 25.1795 23.3241 10.5514 -3.17923 -1.01943 16.7283 25.2747 9.97594 -8.34318 -20.0365 -18.5765 -8.33713 8.37319 35.4576 52.0906 40.9414 25.6816 -126.444 44.3839 26.308 11.3217 2.5947 -0.787839 -2.5713 -7.77967 -15.4702 -22.1933 -29.0551 -30.1189 -0.663732 -0.646466 -2.5031 2.27843 10.6978 4.10698 -9.16244 -10.4496 1.68446 14.1666 13.961 6.95349 -2.85096 -10.0509 -8.84687 3.00289 32.78 67.6561 69.4285 36.802 -2.34452 -12.2308 -121.477 -170.792 -165.678 59.9693 72.7112 74.3223 53.1272 23.3137 0.93473 -13.7136 -19.9931 -21.7942 -27.1843 -36.9208 -46.0441 -55.1426 -62.2305 -58.9823 -50.4659 -45.4865 -43.2042 -35.3582 -24.3861 -18.8665 -10.3258 -2.55665 -8.5548 -19.7381 -20.6618 -10.9652 -0.132496 3.96224 3.81311 1.84054 1.72266 7.82142 23.9501 53.6748 73.5985 53.2203 10.2726 -31.3627 -55.6905 -57.5443 -57.1639 -39.7092 -47.0353 -103.854 -141.04 -160.688 -184.729 -175.673 24.1679 30.519 34.7272 32.1908 22.6708 17.0096 -10.8803 42.7203 67.0235 86.6218 82.2834 46.9993 5.7255 -18.0928 -30.2911 -34.4781 -34.9355 -39.2467 -50.1014 -62.5177 -73.2832 -82.0444 -85.4654 -81.9583 -74.8938 -62.3434 -37.1214 -5.41236 14.7529 16.4741 1.80668 -18.0842 -31.7607 -32.33 -23.7431 -14.8748 -9.89121 -5.75111 0.137258 8.64865 18.0338 28.231 39.5605 36.5972 11.1119 -21.9823 -54.6601 -73.4892 -76.3609 -76.1629 -73.2326 -61.5834 -58.619 -47.4943 -69.2734 -103.931 -73.3308 -87.6482 -139.659 -149.239 -157.756 -177.471 -197.462 -169.003 25.0456 29.1743 34.929 35.3392 28.0113 14.4527 4.54894 2.0164 -0.597461 -7.9278 -15.187 -11.9884 -2.49675 9.10422 12.5161 2.8819 -8.09646 -14.0007 -14.967 -11.3938 -8.9538 -9.12916 -4.0349 11.8506 37.2041 68.9084 94.3152 82.8442 30.9704 -17.2493 -35.1768 -41.3879 -44.125 -44.1377 -46.8532 -56.5967 -69.1993 -78.9278 -85.3252 -86.8499 -78.9781 -62.0365 -34.7255 10.3197 60.4907 88.967 69.4067 21.153 -18.0211 -36.6122 -38.0014 -30.4836 -23.1139 -18.3883 -11.9571 0.108988 15.7475 26.1897 28.2626 24.6526 12.7846 0.0206507 -16.1736 -49.9304 -72.1768 -70.8976 -62.3454 -60.928 -68.2096 -79.2176 -81.1735 -73.1491 -80.273 -90.3031 -94.2419 -60.9045 -110.122 -140.81 -153.158 -165.346 -174.464 -187.537 -185.488 -125.817 26.9765 25.2272 29.0368 32.3577 28.5286 20.1122 6.97511 -4.80724 -9.24111 -9.01595 -5.90213 -1.91635 -0.957731 -2.55471 -2.34155 -4.35269 -14.09 -24.5041 -30.3897 -30.9939 -27.3329 -24.687 -25.7703 -19.8449 -0.814186 28.5549 65.4318 94.1056 74.2372 9.61706 -40.5289 -52.2591 -54.1142 -53.3834 -49.1734 -48.4757 -55.7048 -66.5234 -74.1143 -77.4163 -73.3758 -53.0609 -16.7632 31.8539 92.9182 141.165 145.904 99.816 34.6815 -12.4978 -34.9518 -38.8175 -31.9118 -23.7487 -19.1474 -11.737 5.08944 26.9189 40.0119 37.5103 24.5324 7.06751 0.59257 -7.17703 -40.9937 -67.1035 -68.0106 -59.329 -57.2138 -64.1169 -71.3916 -73.458 -70.243 -65.5485 -65.2661 -76.6159 -85.8915 -49.8761 -46.1273 -76.6503 -88.8189 -109.104 -125.797 -144.88 -163.682 -173.621 -176.471 -166.218 -117.417 23.3179 19.4713 22.1586 22.6913 18.1341 10.8159 -0.427826 -10.3015 -12.8259 -8.05491 3.16102 12.1064 6.12599 -9.24565 -19.6859 -23.695 -28.7799 -34.9261 -40.4252 -43.867 -43.0033 -40.2134 -39.0919 -30.761 -12.0935 16.1414 56.5418 84.8522 51.4564 -20.4276 -61.139 -64.2044 -60.0843 -50.8159 -41.5788 -42.1106 -50.3686 -59.7156 -65.0083 -64.6817 -54.5645 -21.5815 36.9735 108.907 172.14 187.632 151.682 96.5463 40.5283 -3.78713 -31.1098 -40.7723 -36.3991 -26.9636 -20.1629 -10.3209 11.7362 39.8148 55.2943 48.8309 27.379 -0.153478 -17.6634 -29.0541 -50.923 -65.5829 -66.7899 -62.9868 -64.1613 -71.3117 -75.9003 -74.7972 -71.0388 -64.9742 -60.0311 -60.095 -66.5459 -70.7299 -65.9497 -72.449 -56.244 -56.5719 -70.4022 -45.4304 -15.2118 2.09972 -10.8234 -47.0241 -68.4875 -76.8332 -85.2292 -98.6291 -121.106 -146.545 -162.285 -162.819 -135.48 -81.3464 -21.4458 14.7537 10.3078 11.1848 9.83195 5.76829 -1.66866 -12.4345 -18.2805 -14.5306 -3.34164 10.2482 13.3234 -4.25207 -27.7726 -39.7653 -41.5804 -42.3628 -45.2546 -49.1003 -53.4841 -55.6766 -53.194 -47.2226 -37.2797 -21.935 8.01165 57.3162 78.7297 23.5019 -42.4543 -58.4909 -49.6171 -40.3434 -26.8361 -20.1937 -32.3669 -46.5773 -55.685 -60.1257 -56.2255 -36.2577 12.8925 88.1949 170.457 208.423 175.867 120.693 79.9987 45.5923 8.96561 -22.813 -39.8241 -40.1193 -30.8398 -21.3284 -8.51401 16.2256 45.8473 59.5891 48.8864 22.9917 -8.01591 -30.7327 -44.5928 -56.1841 -61.5634 -65.2327 -65.1991 -67.7555 -74.7404 -79.9221 -81.1641 -81.392 -76.5437 -68.0357 -61.0943 -57.0405 -61.7617 -77.7206 -97.5899 -102.413 -83.1212 -69.6687 -62.144 -54.5186 -55.4895 -70.1933 -58.3325 -23.8534 15.5097 39.2663 33.3011 5.9728 -21.0067 -38.2175 -49.3018 -64.6416 -92.3749 -123.219 -141.42 -132.338 -88.2038 -27.1267 19.3831 19.4929 7.50558 1.7219 -2.57261 -7.26127 -10.9873 -17.1833 -26.8699 -30.3208 -23.0493 -10.1386 -1.58922 -6.78203 -25.2567 -42.996 -50.3205 -50.2225 -49.4661 -50.9561 -52.8209 -54.6543 -55.7727 -53.9822 -48.7801 -38.2556 -18.5525 18.8746 66.9272 66.2769 1.40126 -38.777 -28.2238 -9.96663 -3.62048 -0.361553 -4.76142 -29.6091 -48.4706 -56.7068 -60.5432 -50.9748 -9.45738 60.6426 136.983 190.753 184.104 138.089 91.0886 61.8917 41.1831 15.0788 -13.3326 -32.6801 -36.2881 -27.4666 -15.7385 -1.30111 21.6237 46.5145 54.3859 39.3741 13.1058 -13.5033 -34.2368 -47.2035 -54.3902 -61.5724 -66.7173 -64.0839 -66.9347 -74.0006 -81.4476 -87.6609 -93.16 -92.5319 -85.0454 -78.9884 -74.9935 -73.4429 -76.3578 -77.9619 -73.4761 -65.795 -59.0757 -51.0267 -39.8364 -23.8375 -12.4658 8.71348 43.3089 81.5086 99.5878 83.4699 47.0096 13.111 -9.28217 -26.9827 -50.964 -85.4209 -115.333 -123.818 -103.181 -54.928 4.63985 44.0911 46.2418 17.5934 -0.961473 -9.62953 -19.0042 -27.3064 -29.1695 -30.6487 -37.0006 -40.333 -36.1956 -28.0651 -24.9278 -31.02 -41.9008 -49.7967 -51.5138 -49.6359 -48.439 -50.1627 -52.504 -52.7353 -50.4455 -47.8973 -44.1241 -26.8672 7.36867 44.0438 64.5657 41.7328 -3.19408 -11.8099 11.0672 26.3804 17.4612 -3.0271 -21.3697 -42.0308 -55.5884 -60.2059 -55.6774 -20.7485 55.2864 121.643 153.442 149.651 121.069 94.0546 62.8045 35.6741 20.6111 7.40553 -8.93213 -23.1223 -26.8155 -18.1774 -4.22049 11.2316 28.8934 43.4784 43.1041 26.7034 5.05019 -17.0242 -36.2438 -48.9137 -56.9403 -61.6514 -64.3591 -62.9247 -61.8981 -67.3141 -76.4115 -91.5639 -102.519 -107.615 -104.628 -101.84 -99.7616 -94.5051 -86.675 -71.9353 -45.2142 -13.3281 11.5045 24.1203 32.0884 45.4159 59.6416 76.0257 98.055 119.941 122.063 95.0839 53.0885 13.9546 -17.455 -47.5174 -81.3833 -116.517 -139.816 -138.838 -120.116 -88.6058 -46.2588 -8.32707 -6.70762 68.158 48.0383 14.4307 -8.99134 -21.5291 -31.9718 -40.9516 -41.2485 -38.2659 -39.7969 -41.6591 -41.626 -40.0507 -40.9246 -44.2125 -47.9959 -48.3803 -45.963 -42.759 -41.726 -44.3565 -47.9814 -47.5202 -41.9454 -35.9126 -27.9827 -0.152807 41.3652 61.4492 50.8623 28.2098 14.8645 23.7602 40.9903 39.9725 10.9729 -26.5316 -48.9169 -60.7792 -66.6218 -63.7909 -30.8927 50.0906 134.088 151.914 114.102 69.3244 39.344 25.3517 11.2334 -1.23396 -4.66168 -3.93576 -6.24192 -12.1565 -14.5827 -7.81298 5.68878 20.8491 33.1108 37.4404 31.069 17.0367 0.0420716 -19.6431 -38.8826 -51.5848 -57.024 -60.1168 -61.6098 -57.6827 -53.214 -57.8597 -72.5184 -92.2686 -106.377 -115.723 -118.16 -119.303 -117.5 -108.814 -96.3979 -75.6874 -37.6025 11.8182 51.9408 71.9742 88.4257 115.007 134.25 133.416 120.863 109.607 91.8571 58.1524 14.0231 -30.6945 -71.1058 -107.236 -140.414 -167.442 -182.676 -186.757 -185.196 -177.672 -157.612 -125.49 -105.425 -108.665 33.5335 28.7183 7.57867 -8.21184 -22.904 -33.9181 -39.7549 -39.5968 -37.3668 -36.168 -36.7647 -38.6807 -40.7199 -42.4246 -44.9454 -46.3478 -42.793 -37.1355 -34.0165 -34.1188 -37.3469 -39.9148 -37.524 -30.2048 -19.1705 2.478 42.2222 70.5572 58.6687 29.7703 19.0829 23.3416 34.0755 38.7382 21.8318 -14.7927 -50.1464 -67.8527 -74.848 -72.1972 -47.8897 22.471 118.191 157.252 113.792 45.1522 2.03216 -15.8925 -23.0467 -26.721 -26.8734 -21.1604 -10.663 -2.52832 -1.90919 -4.08783 -1.15393 8.67585 20.3783 28.9471 29.6054 22.5932 10.7357 -4.38055 -22.8302 -40.2513 -50.2894 -53.1667 -55.4627 -58.0739 -55.4104 -51.0301 -56.2179 -74.6682 -92.4999 -106.024 -115.965 -122.315 -127.679 -128.017 -120.632 -110.487 -94.3415 -59.838 -6.3505 45.2067 79.4941 113.257 154.74 170.294 141.905 87.4083 44.3615 18.4781 -13.3293 -55.1907 -99.3531 -139.07 -169.771 -192.904 -209.282 -217.11 -222.237 -232.39 -242.209 -240.059 -222.693 -198.438 -170.552 31.331 24.8932 21.9735 16.7172 10.1033 1.45258 -4.84561 -10.5579 -22.271 -31.1922 -33.1484 -31.9023 -30.9571 -30.164 -30.7888 -32.5887 -35.0325 -37.1794 -39.4572 -40.2754 -36.6091 -30.1017 -26.1785 -26.5814 -29.3682 -29.7144 -25.7805 -16.5375 -1.05943 38.898 85.9547 91.707 53.4421 18.9757 11.0145 14.0077 17.5152 9.55821 -13.0859 -40.439 -64.1887 -75.252 -76.3709 -62.8014 -19.2223 58.4512 119.697 103.939 43.5344 -5.7283 -27.3463 -32.6764 -35.0149 -36.1193 -34.1286 -26.9741 -13.616 -0.700435 2.74516 -0.613631 -1.17305 4.1913 12.7564 19.329 20.3389 15.2029 4.8071 -9.47987 -25.2745 -36.687 -42.0239 -44.5964 -49.1395 -54.3926 -54.6347 -52.8523 -59.4054 -77.6209 -90.4665 -102.843 -111.086 -118.368 -127.525 -133.556 -133.921 -131.856 -126.61 -106.453 -61.6817 -3.74729 46.4385 88.8191 124.8 126.907 81.8076 13.1221 -33.7417 -55.7898 -82.8762 -120.068 -158.094 -191.747 -214.245 -226.876 -233.237 -232.803 -232.604 -245.605 -263.334 -267.616 -262.555 -253.573 34.1857 32.1619 6.64644 -2.35922 -0.770585 -3.76647 -8.19953 -12.1775 -15.663 -16.996 -18.7961 -23.9013 -27.2732 -25.9373 -24.7324 -25.1553 -25.8573 -26.5478 -27.5571 -29.0045 -30.0514 -31.7616 -32.8729 -30.6969 -25.3793 -21.9363 -19.4655 -16.766 -15.6537 -11.3337 -0.528074 19.9612 62.8659 94.8148 82.0826 43.861 17.2505 7.64317 4.23835 0.41896 -11.488 -29.2663 -47.2547 -64.1684 -71.5801 -67.7278 -49.2313 -9.79936 42.4411 67.1583 39.9004 0.292871 -23.1362 -31.2982 -31.5536 -31.6609 -32.0717 -30.3883 -25.4824 -15.4695 -3.73507 -0.91439 -6.36739 -9.95812 -7.37844 -0.424324 5.44752 7.04753 4.4459 -3.45833 -16.9357 -27.9252 -31.4425 -32.635 -36.9593 -45.1065 -52.9842 -55.8977 -57.1015 -64.2308 -77.6194 -86.8678 -98.5312 -105.72 -113.747 -123.268 -133.721 -142.809 -149.044 -151.161 -143.836 -117.012 -68.6058 -18.4583 15.3698 32.6161 23.8346 -13.9468 -58.3443 -87.0735 -105.461 -127.986 -158.681 -190.839 -222.198 -242.554 -248.936 -245.772 -237.979 -233.602 -249.712 -278.52 -285.733 -283.894 -294.685 -2.21111 441.808 683.063 11.1562 42.4321 40.5363 -6.65756 -27.8282 -24.0084 -21.3251 -19.4523 -18.1826 -19.0902 -20.345 -21.4793 -22.2654 -21.6134 -19.8232 -18.731 -20.013 -21.885 -23.7143 -25.08 -22.8938 -18.8024 -18.3319 -21.7631 -24.2465 -22.4988 -19.7127 -12.2468 -4.32923 -1.37253 4.44447 17.8504 38.0786 63.231 68.515 47.8129 24.2979 13.732 11.247 8.26565 2.16922 -9.65481 -26.0389 -43.8674 -58.2411 -66.3052 -64.2086 -48.994 -19.8296 12.0906 21.5913 4.51252 -15.8531 -27.0508 -29.6454 -26.511 -23.6444 -23.6246 -25.1843 -26.5381 -20.7316 -6.85523 -6.8016 -19.271 -25.3871 -23.7332 -17.2185 -13.6042 -13.1403 -13.2864 -18.2006 -29.3505 -35.2117 -34.1124 -34.3752 -39.9321 -48.4479 -55.9782 -59.6171 -61.777 -67.661 -78.3376 -91.4308 -102.268 -108.624 -115.76 -119.811 -129.313 -143.998 -156.928 -161.252 -158.887 -147.321 -119.562 -88.8503 -69.3144 -61.7612 -78.3152 -102.104 -120.327 -128.266 -139.033 -152.871 -174.036 -200.067 -232.015 -257.712 -265.556 -258.465 -250.309 -249.106 -270.021 -302.28 -313.235 -317.491 -347.823 -310.786 30.5529 620.035 942.764 955.347 894.398 841.441 744.405 526.532 8.64534 60.6206 55.2433 -10.8344 -42.6768 -37.4447 -28.859 -22.3681 -18.6352 -18.0514 -18.7039 -18.8452 -17.9153 -16.1079 -14.5758 -14.4283 -16.4214 -18.1997 -20.3002 -22.6081 -19.7455 -9.49035 -3.25807 -6.15898 -13.716 -18.0092 -17.4946 -10.6192 -0.927014 6.47449 18.5304 34.0786 43.0294 45.2744 37.0625 24.3235 17.5417 18.258 21.7367 22.715 14.7684 -1.56146 -21.5965 -39.829 -51.0013 -60.064 -63.7128 -51.8122 -27.8238 -9.41269 -6.24223 -14.1468 -23.79 -27.7822 -24.9896 -18.4897 -15.1598 -18.5537 -27.6247 -38.3926 -37.5876 -42.0404 -47.6567 -45.1412 -40.1381 -35.833 -34.0252 -34.029 -38.5498 -47.0947 -50.2963 -49.9004 -51.6757 -56.2323 -61.8477 -67.0783 -70.0446 -71.3269 -74.7274 -83.6086 -98.7989 -114.016 -121.847 -125.185 -123.247 -126.841 -140.512 -156.124 -160.527 -159.465 -155.657 -143.485 -131.836 -120.724 -115.436 -139.836 -161.195 -166.796 -163.694 -163.273 -167.534 -179.334 -200.38 -234.896 -270.568 -287.136 -284.386 -285.238 -294.698 -313.195 -327.856 -335.829 -348.764 -376.158 -279.828 163.057 770.728 1044.85 1067.46 1015.49 932.463 783.664 533.859 230.612 42.8087 57.4324 -21.3616 14.8801 74.5249 50.2635 -20.0591 -47.9169 -41.3842 -31.1901 -22.9574 -18.228 -16.8 -17.6286 -17.2662 -15.2149 -12.4486 -11.0144 -11.8289 -14.74 -17.6196 -19.7126 -21.5734 -19.9611 -11.1178 -0.294625 3.14282 -3.09287 -9.75094 -11.8852 -8.20039 3.70382 16.5814 31.3808 42.6107 41.0837 32.3873 24.4825 23.9019 28.0161 30.1501 30.245 28.0508 15.976 -5.67775 -26.7644 -39.7778 -47.3658 -57.4041 -59.0085 -43.6347 -28.158 -25.1596 -23.597 -23.2948 -26.6173 -25.7874 -18.937 -12.7849 -14.2859 -24.4088 -40.6536 -58.1693 -69.7684 -71.9646 -76.1511 -82.4629 -78.3416 -71.6032 -65.2143 -57.9712 -52.4336 -53.335 -59.1769 -66.3297 -70.3528 -73.6641 -77.8218 -83.2323 -86.0499 -89.4507 -91.2324 -89.8011 -91.2227 -97.6007 -111.319 -127.895 -136.502 -139.239 -138.552 -134.864 -140.468 -152.697 -156.128 -155.673 -155.493 -150.374 -145.369 -136.355 -132.62 -159.853 -181.691 -187.714 -177.001 -173.832 -174.802 -181.591 -200.302 -237.114 -281.772 -311.068 -320.271 -332.381 -346.781 -358.197 -353.169 -342.834 -341.653 -305 -60.2972 463.97 924.464 1071.85 1035.71 907.282 729.672 513.938 278.501 83.2815 -15.3361 12.3615 42.0292 -4.19011 -12.0164 30.5188 69.8774 22.0071 -34.1052 -48.9799 -41.348 -30.142 -22.1279 -17.0196 -16.0746 -18.4027 -18.8877 -15.2448 -11.3824 -8.94045 -10.3521 -13.9847 -17.4603 -19.5121 -21.4004 -20.7953 -17.0936 -9.8867 -3.82588 -4.79668 -6.11767 -5.29538 0.282296 13.6612 27.7614 36.6745 39.991 37.9853 31.7647 28.0395 33.6055 40.0804 38.2103 31.1018 20.6397 2.17269 -22.158 -40.8071 -47.4689 -50.6499 -54.0317 -44.1219 -28.4358 -27.9531 -32.7604 -27.9338 -24.7592 -27.177 -26.7245 -22.2602 -22.6399 -31.8371 -47.4449 -65.2449 -82.5699 -97.0594 -107.49 -113.993 -112.336 -103.607 -96.2782 -89.5684 -79.7205 -71.2167 -70.0443 -74.343 -80.5563 -87.7136 -95.6773 -102.579 -111.639 -112.746 -114.583 -111.211 -102.017 -107.927 -117.403 -128.309 -142.344 -152.092 -155.822 -158.067 -152.484 -148.652 -154.626 -156.942 -156.867 -159.263 -158.201 -157.625 -151.637 -147.332 -166.753 -184.25 -183.366 -175.15 -178.204 -180.938 -186.387 -204.009 -238.976 -284.224 -321.406 -341.1 -356.388 -366.478 -373.066 -359.187 -330.516 -283.863 -124.553 279.013 769.729 1024.59 1049.04 910.59 632.45 361.089 179.406 51.404 -27.9195 -54.9413 -4.47352 39.2671 8.4718 -4.87218 -4.33848 30.3547 36.3714 -13.7462 -41.5691 -46.7538 -40.2096 -27.6106 -20.7985 -16.6234 -18.8701 -22.2014 -22.1052 -19.3258 -14.2761 -10.1791 -10.3419 -13.694 -17.4247 -19.7147 -21.3333 -21.7777 -20.0568 -15.2535 -11.3311 -7.41183 -4.64739 -1.63524 7.41017 19.7882 31.1225 34.5265 32.074 31.2957 29.7395 28.3646 33.4402 37.2985 33.1969 23.0034 6.7774 -16.1952 -38.2714 -51.6827 -57.1528 -57.166 -45.3955 -19.0983 -17.0866 -31.868 -33.5008 -24.4738 -23.4079 -30.3989 -31.527 -21.76 -23.6717 -46.5573 -79.2056 -97.5858 -110.959 -123.023 -132.221 -135.322 -130.793 -123.638 -115.739 -108.116 -97.2547 -86.7885 -80.9223 -80.3143 -85.996 -97.7362 -110.229 -118.039 -126.388 -125.755 -126.675 -117.688 -113.386 -128.515 -138.714 -150.272 -159.766 -165.386 -166.436 -164.325 -158.056 -160.691 -165.302 -163.832 -162.46 -158.026 -165.725 -168.201 -168.645 -179.796 -192.768 -188.433 -188.067 -193.064 -197.615 -204.131 -222.361 -252.572 -286.846 -312.536 -320.876 -323.907 -333.152 -351.432 -352.241 -317.98 -204.45 80.1044 532.904 898.068 1017.16 946.055 684.224 309.937 89.8925 26.8835 -9.72118 -44.8252 -51.5364 21.1387 74.7664 -12.0775 -13.0504 2.8042 -10.7995 -44.2785 -51.215 -48.3338 -40.8251 -31.0051 -26.4637 -22.6255 -22.6464 -25.7145 -22.9603 -20.767 -17.7729 -14.3583 -11.5115 -13.4341 -17.0261 -19.4852 -20.1042 -20.2536 -19.3092 -15.7603 -10.718 -4.9818 -1.128 3.64088 14.8584 23.8844 30.3278 30.9606 26.9947 24.5237 20.9473 17.5049 20.6063 23.9004 20.4077 9.32534 -8.77414 -31.7856 -48.7619 -57.3007 -61.3426 -57.8947 -34.0626 -7.87631 -19.1141 -35.9597 -30.8699 -20.1084 -21.9791 -32.1779 -17.5556 -61.2985 -85.5846 -96.272 -109.215 -127.345 -149.806 -150.28 -139.392 -126.742 -113.669 -103.006 -92.1501 -82.8749 -78.9427 -86.3928 -103.334 -118.076 -123.894 -124.539 -119.695 -119.554 -116.057 -106.529 -112.138 -122.372 -133.677 -146.186 -156.02 -163.735 -166.562 -162.405 -158.368 -162.402 -171.574 -168.299 -165.652 -164.819 -166.852 -177.38 -188.896 -195.489 -207.804 -201.679 -212.766 -221.823 -229.992 -240.771 -260.733 -282.058 -291.004 -276.832 -239.93 -221.09 -244.586 -287.965 -291.294 -245.769 -96.4551 215.028 570.895 790.466 819.869 669.355 350.572 54.3355 -39.9878 -37.1807 -47.9651 -72.2125 -57.9177 40.3993 98.3256 -12.0009 -20.9513 -22.8615 -39.6462 -54.3583 -54.3872 -49.2687 -41.5553 -35.2265 -34.2083 -29.2158 -24.4657 -27.9893 -23.4196 -18.9793 -17.4062 -14.2811 -11.3492 -12.592 -15.7546 -17.3886 -16.7453 -17.0297 -17.3999 -14.6203 -10.0391 -4.74243 0.321766 8.03393 20.9322 27.2517 29.015 27.6479 23.2242 18.3817 13.2985 10.2298 12.5436 15.3796 12.1059 -1.75661 -22.1139 -41.4125 -54.1629 -57.489 -59.6334 -55.6833 -35.6631 -20.2628 -31.9089 -39.8653 -31.0145 -20.0172 -24.0027 -26.7752 -100.456 -117.243 -103.226 -86.5271 -70.6326 -65.7215 -72.8333 -77.4033 -78.6923 -90.6997 -110.049 -120.868 -122.267 -119.81 -111.078 -106.89 -105.09 -99.5406 -97.8875 -104.081 -117.77 -133.68 -145.776 -153.486 -157.254 -157.075 -158.358 -164.886 -164.62 -153.344 -164.209 -167.451 -167.98 -182.27 -191.997 -206.392 -226.89 -231.843 -242.814 -256.79 -270.436 -285.686 -304.881 -311.289 -282.532 -212.815 -119.782 -65.4136 -77.7257 -101.411 -46.9378 32.1928 139.8 302.599 438.302 474.17 410.117 241.925 59.4465 -12.8926 3.93622 2.37871 -24.2775 -30.1091 14.951 114.922 144.572 -11.2318 -22.426 -38.3604 -50.6183 -53.5894 -49.7964 -44.8843 -42.3109 -42.9655 -41.5917 -37.5241 -34.3784 -27.6423 -21.0555 -17.5247 -13.4956 -10.9441 -11.4885 -13.0396 -13.017 -11.5801 -12.1191 -13.5941 -12.0702 -9.25661 -5.39869 0.379372 8.73784 20.6362 25.0569 22.5481 18.7024 14.0348 9.62792 8.02358 9.94906 12.1768 12.2571 6.1632 -11.328 -32.3338 -46.1676 -52.047 -54.285 -56.2232 -55.2526 -46.0762 -40.6458 -46.5284 -47.1912 -37.0194 -25.0986 -29.8057 -25.5579 -80.9519 -90.9211 -100.717 -102.923 -85.3531 -86.7747 -118.197 -118.344 -106.553 -100.462 -94.2446 -92.8948 -96.6897 -106.533 -120.81 -132.886 -139.599 -142.593 -143.624 -148.633 -156.389 -149.414 -156.862 -166.547 -172.331 -185.186 -191.291 -208.505 -233.568 -246.733 -261.538 -285.217 -304.257 -321.672 -337.455 -329.158 -265.571 -145.302 2.98312 136.944 229.579 322.975 426.746 437.746 381.518 332.38 313.817 281.966 207.232 94.9604 79.8607 181.193 259.038 230.19 172.241 164.794 194.41 243.327 217.936 -15.54 -34.0766 -48.3558 -53.4751 -51.9031 -50.1847 -48.6842 -49.1916 -49.3232 -44.5773 -37.6871 -30.0414 -24.6526 -20.3421 -15.3267 -12.3075 -11.3826 -11.5145 -10.8669 -9.31451 -10.1457 -12.1262 -10.5453 -6.53922 -1.5225 2.81859 7.51601 14.6078 16.0724 11.7055 6.87013 2.74056 -0.430463 2.19083 8.99264 11.7152 7.65302 -1.35741 -18.2211 -34.5018 -45.6187 -48.0815 -49.9565 -52.7346 -54.0965 -50.9232 -50.6875 -56.3022 -55.248 -41.6881 -26.7236 -30.1224 -25.0755 -23.5738 -101.289 -115.264 -103.197 -43.6216 -33.7409 -54.4461 -41.9498 -39.2769 -55.9365 -90.2856 -105.042 -107.303 -116.104 -123.73 -128.